ITEM: TIMESTEP
0
ITEM: NUMBER OF ATOMS
2610
ITEM: BOX BOUNDS pp pp pp
-1.7500000000000000e+01 1.7500000000000000e+01
-1.7500000000000000e+01 1.7500000000000000e+01
-1.7500000000000000e+01 1.7500000000000000e+01
ITEM: ATOMS id type xs ys zs
1 1 0.122 0.104 0.219
2 3 0.122 0.0754286 0.219
3 3 0.122 0.132571 0.219
4 4 0.082 0.104 0.219
5 5 0.082 0.0754286 0.219
6 1 0.162 0.104 0.219
7 3 0.162 0.132571 0.219
8 3 0.162 0.0754286 0.219
9 2 0.202 0.104 0.219
10 1 0.242 0.104 0.219
11 3 0.242 0.132571 0.219
12 3 0.242 0.0754286 0.219
190 1 0.035 0.242 0.148
192 3 0.035 0.213429 0.148
193 1 0.115 0.242 0.148
195 3 0.115 0.213429 0.148
196 2 0.155 0.242 0.148
197 1 0.195 0.242 0.148
199 3 0.195 0.213429 0.148
316 1 0.167 0.101 0.083
317 3 0.167 0.0724286 0.083
318 3 0.167 0.129571 0.083
319 4 0.127 0.101 0.083
320 5 0.127 0.0724286 0.083
321 1 0.207 0.101 0.083
322 3 0.207 0.129571 0.083
323 3 0.207 0.0724286 0.083
324 2 0.247 0.101 0.083
359 4 0.007 0.101 0.083
360 5 0.007 0.129571 0.083
1402 6 0.174 0.014 0.165
1403 7 0.190739 0.0356272 0.165
1702 6 0.092 0.152 0.005
1703 7 0.108739 0.173627 0.005
1704 7 0.108739 0.130373 0.005
1951 6 0.023 0.02 0.152
1952 7 0.0397395 0.0416272 0.152
2398 6 0.206 0.202 0.059
2399 7 0.222739 0.223627 0.059
2400 7 0.222739 0.180373 0.059
2521 6 0.248 0.211 0.218
13 1 0.322 0.104 0.219
14 3 0.322 0.132571 0.219
15 3 0.322 0.0754286 0.219
16 2 0.362 0.104 0.219
17 1 0.402 0.104 0.219
18 3 0.402 0.132571 0.219
19 3 0.402 0.0754286 0.219
20 1 0.482 0.104 0.219
21 3 0.482 0.132571 0.219
22 3 0.482 0.0754286 0.219
200 1 0.275 0.242 0.148
202 3 0.275 0.213429 0.148
203 2 0.315 0.242 0.148
204 1 0.355 0.242 0.148
206 3 0.355 0.213429 0.148
207 1 0.435 0.242 0.148
209 3 0.435 0.213429 0.148
210 2 0.475 0.242 0.148
325 1 0.287 0.101 0.083
326 3 0.287 0.129571 0.083
327 3 0.287 0.0724286 0.083
328 1 0.367 0.101 0.083
329 3 0.367 0.129571 0.083
330 3 0.367 0.0724286 0.083
331 2 0.407 0.101 0.083
332 1 0.447 0.101 0.083
333 3 0.447 0.129571 0.083
334 3 0.447 0.0724286 0.083
1774 6 0.489 0.249 0.007
1888 6 0.413 0.231 0.054
1890 7 0.429739 0.209373 0.054
1966 6 0.255 0.012 0.189
1967 7 0.271739 0.0336272 0.189
2041 6 0.48 0.153 0.026
2042 7 0.496739 0.174627 0.026
2043 7 0.496739 0.131373 0.026
2052 7 0.261739 0.231373 0.03
2522 7 0.264739 0.232627 0.218
2523 7 0.264739 0.189373 0.218
191 3 0.035 0.270571 0.148
194 3 0.115 0.270571 0.148
198 3 0.195 0.270571 0.148
991 1 0.085 0.342 0.075
992 3 0.085 0.313429 0.075
993 3 0.085 0.370571 0.075
994 4 0.045 0.342 0.075
995 5 0.045 0.313429 0.075
996 1 0.125 0.342 0.075
997 3 0.125 0.370571 0.075
998 3 0.125 0.313429 0.075
999 2 0.165 0.342 0.075
1000 1 0.205 0.342 0.075
1001 3 0.205 0.370571 0.075
1002 3 0.205 0.313429 0.075
1498 6 0.05 0.324 0.002
1499 7 0.0667395 0.345627 0.002
1500 7 0.0667395 0.302373 0.002
1555 6 0.134 0.437 0.043
1556 7 0.150739 0.458627 0.043
1557 7 0.150739 0.415373 0.043
1573 6 0.248 0.438 0.196
1810 6 0.237 0.429 0.036
1855 6 0.1 0.482 0.083
1857 7 0.116739 0.460373 0.083
1900 6 0.2 0.377 0.165
1901 7 0.216739 0.398627 0.165
1902 7 0.216739 0.355373 0.165
2017 6 0.078 0.453 0.21
2018 7 0.0947395 0.474627 0.21
2019 7 0.0947395 0.431373 0.21
2050 6 0.245 0.253 0.03
2527 6 0 0.28 0.222
2528 7 0.0167395 0.301627 0.222
2529 7 0.0167395 0.258373 0.222
201 3 0.275 0.270571 0.148
205 3 0.355 0.270571 0.148
208 3 0.435 0.270571 0.148
1003 1 0.285 0.342 0.075
1004 3 0.285 0.370571 0.075
1005 3 0.285 0.313429 0.075
1006 2 0.325 0.342 0.075
1007 1 0.365 0.342 0.075
1008 3 0.365 0.370571 0.075
1009 3 0.365 0.313429 0.075
1010 1 0.445 0.342 0.075
1011 3 0.445 0.370571 0.075
1012 3 0.445 0.313429 0.075
1013 2 0.485 0.342 0.075
1459 6 0.401 0.422 0.203
1460 7 0.417739 0.443627 0.203
1461 7 0.417739 0.400373 0.203
1516 6 0.284 0.471 0.112
1517 7 0.300739 0.492627 0.112
1518 7 0.300739 0.449373 0.112
1574 7 0.264739 0.459627 0.196
1575 7 0.264739 0.416373 0.196
1811 7 0.253739 0.450627 0.036
1812 7 0.253739 0.407373 0.036
1889 7 0.429739 0.252627 0.054
2051 7 0.261739 0.274627 0.03
2064 7 0.439739 0.480373 0.004
2191 6 0.348 0.493 0.208
2193 7 0.364739 0.471373 0.208
2209 6 0.477 0.403 0.132
2210 7 0.493739 0.424627 0.132
2211 7 0.493739 0.381373 0.132
245 1 0.076 0.236 0.352
247 3 0.076 0.207429 0.352
248 2 0.116 0.236 0.352
249 1 0.156 0.236 0.352
251 3 0.156 0.207429 0.352
252 1 0.236 0.236 0.352
254 3 0.236 0.207429 0.352
532 2 0.011 0.062 0.383
533 1 0.051 0.062 0.383
534 3 0.051 0.0905714 0.383
535 3 0.051 0.0334286 0.383
536 1 0.091 0.062 0.383
537 3 0.091 0.0905714 0.383
538 3 0.091 0.0334286 0.383
539 4 0.131 0.062 0.383
540 5 0.131 0.0905714 0.383
589 4 0.218 0.24 0.49
590 5 0.218 0.211429 0.49
623 1 0.018 0.24 0.49
625 3 0.018 0.211429 0.49
626 1 0.058 0.24 0.49
628 3 0.058 0.211429 0.49
629 4 0.098 0.24 0.49
1423 6 0.114 0.012 0.317
1424 7 0.130739 0.0336272 0.317
1465 6 0.079 0.156 0.441
1466 7 0.0957395 0.177627 0.441
1467 7 0.0957395 0.134373 0.441
1519 6 0.244 0.064 0.485
1678 6 0.19 0.174 0.277
1679 7 0.206739 0.195627 0.277
1680 7 0.206739 0.152373 0.277
2085 7 0.153739 0.229373 0.254
2104 6 0.176 0.047 0.447
2105 7 0.192739 0.0686272 0.447
2106 7 0.192739 0.0253728 0.447
2161 6 0.034 0.214 0.287
2162 7 0.0507395 0.235627 0.287
2163 7 0.0507395 0.192373 0.287
255 2 0.276 0.236 0.352
256 1 0.316 0.236 0.352
258 3 0.316 0.207429 0.352
259 1 0.396 0.236 0.352
261 3 0.396 0.207429 0.352
262 2 0.436 0.236 0.352
263 1 0.476 0.236 0.352
265 3 0.476 0.207429 0.352
496 1 0.291 0.062 0.383
497 3 0.291 0.0334286 0.383
498 3 0.291 0.0905714 0.383
499 4 0.251 0.062 0.383
500 5 0.251 0.0334286 0.383
501 1 0.331 0.062 0.383
502 3 0.331 0.0905714 0.383
503 3 0.331 0.0334286 0.383
504 2 0.371 0.062 0.383
505 1 0.411 0.062 0.383
506 3 0.411 0.0905714 0.383
507 3 0.411 0.0334286 0.383
508 1 0.491 0.062 0.383
509 3 0.491 0.0905714 0.383
510 3 0.491 0.0334286 0.383
586 1 0.258 0.24 0.49
587 3 0.258 0.211429 0.49
591 1 0.298 0.24 0.49
593 3 0.298 0.211429 0.49
594 2 0.338 0.24 0.49
595 1 0.378 0.24 0.49
597 3 0.378 0.211429 0.49
598 1 0.458 0.24 0.49
600 3 0.458 0.211429 0.49
601 2 0.498 0.24 0.49
1408 6 0.419 0.018 0.315
1409 7 0.435739 0.0396272 0.315
1450 6 0.344 0.16 0.297
1451 7 0.360739 0.181627 0.297
1452 7 0.360739 0.138373 0.297
1520 7 0.260739 0.0856272 0.485
1521 7 0.260739 0.0423728 0.485
1603 6 0.47 0.211 0.269
1604 7 0.486739 0.232627 0.269
1605 7 0.486739 0.189373 0.269
1720 6 0.314 0.088 0.301
1721 7 0.330739 0.109627 0.301
1722 7 0.330739 0.0663728 0.301
1816 6 0.348 0.027 0.494
1817 7 0.364739 0.0486272 0.494
1818 7 0.364739 0.00537285 0.494
1948 6 0.443 0.207 0.421
1949 7 0.459739 0.228627 0.421
1950 7 0.459739 0.185373 0.421
2296 6 0.457 0.132 0.298
2297 7 0.473739 0.153627 0.298
2298 7 0.473739 0.110373 0.298
2482 6 0.261 0.185 0.412
2483 7 0.277739 0.206627 0.412
2484 7 0.277739 0.163373 0.412
246 3 0.076 0.264571 0.352
250 3 0.156 0.264571 0.352
253 3 0.236 0.264571 0.352
624 3 0.018 0.268571 0.49
627 3 0.058 0.268571 0.49
630 5 0.098 0.268571 0.49
946 1 0.247 0.399 0.296
947 3 0.247 0.370429 0.296
948 3 0.247 0.427571 0.296
949 4 0.207 0.399 0.296
950 5 0.207 0.370429 0.296
983 1 0.007 0.399 0.296
984 3 0.007 0.427571 0.296
985 3 0.007 0.370429 0.296
986 1 0.047 0.399 0.296
987 3 0.047 0.427571 0.296
988 3 0.047 0.370429 0.296
989 4 0.087 0.399 0.296
990 5 0.087 0.427571 0.296
1357 6 0.033 0.318 0.431
1358 7 0.0497395 0.339627 0.431
1359 7 0.0497395 0.296373 0.431
1428 7 0.156739 0.493373 0.266
1956 7 0.0457395 0.494373 0.496
1990 6 0.128 0.443 0.392
1991 7 0.144739 0.464627 0.392
1992 7 0.144739 0.421373 0.392
1993 6 0.127 0.336 0.459
1994 7 0.143739 0.357627 0.459
1995 7 0.143739 0.314373 0.459
2074 6 0.034 0.431 0.408
2075 7 0.0507395 0.452627 0.408
2076 7 0.0507395 0.409373 0.408
2083 6 0.137 0.251 0.254
2084 7 0.153739 0.272627 0.254
2512 6 0.107 0.47 0.468
2513 7 0.123739 0.491627 0.468
2514 7 0.123739 0.448373 0.468
2572 6 0.105 0.327 0.392
2573 7 0.121739 0.348627 0.392
2574 7 0.121739 0.305373 0.392
2590 6 0.242 0.473 0.379
257 3 0.316 0.264571 0.352
260 3 0.396 0.264571 0.352
264 3 0.476 0.264571 0.352
588 3 0.258 0.268571 0.49
592 3 0.298 0.268571 0.49
596 3 0.378 0.268571 0.49
599 3 0.458 0.268571 0.49
951 1 0.287 0.399 0.296
952 3 0.287 0.427571 0.296
953 3 0.287 0.370429 0.296
954 2 0.327 0.399 0.296
955 1 0.367 0.399 0.296
956 3 0.367 0.427571 0.296
957 3 0.367 0.370429 0.296
958 1 0.447 0.399 0.296
959 3 0.447 0.427571 0.296
960 3 0.447 0.370429 0.296
961 2 0.487 0.399 0.296
1471 6 0.425 0.441 0.39
1472 7 0.441739 0.462627 0.39
1473 7 0.441739 0.419373 0.39
1513 6 0.258 0.276 0.278
1514 7 0.274739 0.297627 0.278
1515 7 0.274739 0.254373 0.278
1561 6 0.333 0.471 0.356
1562 7 0.349739 0.492627 0.356
1563 7 0.349739 0.449373 0.356
1738 6 0.351 0.409 0.454
1739 7 0.367739 0.430627 0.454
1740 7 0.367739 0.387373 0.454
1771 6 0.439 0.336 0.435
1772 7 0.455739 0.357627 0.435
1773 7 0.455739 0.314373 0.435
1969 6 0.286 0.412 0.367
1970 7 0.302739 0.433627 0.367
1971 7 0.302739 0.390373 0.367
2097 7 0.283739 0.491373 0.46
2305 6 0.288 0.325 0.434
2306 7 0.304739 0.346627 0.434
2307 7 0.304739 0.303373 0.434
2591 7 0.258739 0.494627 0.379
2592 7 0.258739 0.451373 0.379
567 1 0.02 0.233 0.652
569 3 0.02 0.204429 0.652
570 2 0.06 0.233 0.652
571 1 0.1 0.233 0.652
573 3 0.1 0.204429 0.652
574 1 0.18 0.233 0.652
576 3 0.18 0.204429 0.652
577 2 0.22 0.233 0.652
823 1 0.044 0.217 0.74
824 3 0.044 0.245571 0.74
825 3 0.044 0.188429 0.74
826 2 0.084 0.217 0.74
827 1 0.124 0.217 0.74
828 3 0.124 0.245571 0.74
829 3 0.124 0.188429 0.74
830 1 0.204 0.217 0.74
831 3 0.204 0.245571 0.74
832 3 0.204 0.188429 0.74
833 2 0.244 0.217 0.74
1190 1 0.025 0.066 0.692
1191 3 0.025 0.0945714 0.692
1192 3 0.025 0.0374286 0.692
1193 2 0.065 0.066 0.692
1194 1 0.105 0.066 0.692
1195 3 0.105 0.0945714 0.692
1196 3 0.105 0.0374286 0.692
1197 1 0.185 0.066 0.692
1198 3 0.185 0.0945714 0.692
1199 3 0.185 0.0374286 0.692
1200 2 0.225 0.066 0.692
1372 6 0.026 0.236 0.568
1374 7 0.0427395 0.214373 0.568
1480 6 0.191 0.231 0.564
1482 7 0.207739 0.209373 0.564
1813 6 0 0.106 0.564
1814 7 0.0167395 0.127627 0.564
1815 7 0.0167395 0.0843728 0.564
1822 6 0.12 0.092 0.539
1823 7 0.136739 0.113627 0.539
1824 7 0.136739 0.0703728 0.539
1978 6 0.116 0.005 0.628
1979 7 0.132739 0.0266272 0.628
544 4 0.46 0.233 0.652
545 5 0.46 0.204429 0.652
578 1 0.26 0.233 0.652
580 3 0.26 0.204429 0.652
581 1 0.3 0.233 0.652
583 3 0.3 0.204429 0.652
584 4 0.34 0.233 0.652
834 1 0.284 0.217 0.74
835 3 0.284 0.245571 0.74
836 3 0.284 0.188429 0.74
837 1 0.364 0.217 0.74
838 3 0.364 0.245571 0.74
839 3 0.364 0.188429 0.74
840 2 0.404 0.217 0.74
841 1 0.444 0.217 0.74
842 3 0.444 0.245571 0.74
843 3 0.444 0.188429 0.74
1201 1 0.265 0.066 0.692
1202 3 0.265 0.0945714 0.692
1203 3 0.265 0.0374286 0.692
1204 1 0.345 0.066 0.692
1205 3 0.345 0.0945714 0.692
1206 3 0.345 0.0374286 0.692
1207 2 0.385 0.066 0.692
1208 1 0.425 0.066 0.692
1209 3 0.425 0.0945714 0.692
1210 3 0.425 0.0374286 0.692
1211 1 0.465 0.066 0.692
1212 3 0.465 0.0945714 0.692
1213 3 0.465 0.0374286 0.692
1495 6 0.315 0.132 0.523
1496 7 0.331739 0.153627 0.523
1497 7 0.331739 0.110373 0.523
1747 6 0.402 0.176 0.573
1748 7 0.418739 0.197627 0.573
1749 7 0.418739 0.154373 0.573
2353 6 0.372 0.028 0.573
2354 7 0.388739 0.0496272 0.573
2355 7 0.388739 0.00637285 0.573
2476 6 0.253 0.162 0.586
2477 7 0.269739 0.183627 0.586
2478 7 0.269739 0.140373 0.586
2524 6 0.367 0.164 0.662
2525 7 0.383739 0.185627 0.662
2526 7 0.383739 0.142373 0.662
120 2 0.025 0.373 0.538
121 1 0.065 0.373 0.538
122 3 0.065 0.401571 0.538
123 3 0.065 0.344429 0.538
124 1 0.145 0.373 0.538
125 3 0.145 0.401571 0.538
126 3 0.145 0.344429 0.538
127 2 0.185 0.373 0.538
128 1 0.225 0.373 0.538
129 3 0.225 0.401571 0.538
130 3 0.225 0.344429 0.538
387 1 0.071 0.394 0.612
388 3 0.071 0.422571 0.612
389 3 0.071 0.365429 0.612
390 2 0.111 0.394 0.612
391 1 0.151 0.394 0.612
392 3 0.151 0.422571 0.612
393 3 0.151 0.365429 0.612
394 1 0.231 0.394 0.612
395 3 0.231 0.422571 0.612
396 3 0.231 0.365429 0.612
568 3 0.02 0.261571 0.652
572 3 0.1 0.261571 0.652
575 3 0.18 0.261571 0.652
757 2 0.026 0.415 0.697
758 1 0.066 0.415 0.697
759 3 0.066 0.443571 0.697
760 3 0.066 0.386429 0.697
761 1 0.106 0.415 0.697
762 3 0.106 0.443571 0.697
763 3 0.106 0.386429 0.697
764 4 0.146 0.415 0.697
765 5 0.146 0.443571 0.697
1373 7 0.0427395 0.257627 0.568
1481 7 0.207739 0.252627 0.564
1507 6 0.086 0.317 0.7
1508 7 0.102739 0.338627 0.7
1509 7 0.102739 0.295373 0.7
1663 6 0.209 0.466 0.749
1664 7 0.225739 0.487627 0.749
1665 7 0.225739 0.444373 0.749
91 1 0.465 0.373 0.538
92 3 0.465 0.344429 0.538
93 3 0.465 0.401571 0.538
94 4 0.425 0.373 0.538
95 5 0.425 0.344429 0.538
131 1 0.265 0.373 0.538
132 3 0.265 0.401571 0.538
133 3 0.265 0.344429 0.538
134 4 0.305 0.373 0.538
135 5 0.305 0.401571 0.538
397 2 0.271 0.394 0.612
398 1 0.311 0.394 0.612
399 3 0.311 0.422571 0.612
400 3 0.311 0.365429 0.612
401 1 0.351 0.394 0.612
402 3 0.351 0.422571 0.612
403 3 0.351 0.365429 0.612
404 4 0.391 0.394 0.612
405 5 0.391 0.422571 0.612
579 3 0.26 0.261571 0.652
582 3 0.3 0.261571 0.652
585 5 0.34 0.261571 0.652
721 1 0.306 0.415 0.697
722 3 0.306 0.386429 0.697
723 3 0.306 0.443571 0.697
724 4 0.266 0.415 0.697
725 5 0.266 0.386429 0.697
726 1 0.346 0.415 0.697
727 3 0.346 0.443571 0.697
728 3 0.346 0.386429 0.697
729 2 0.386 0.415 0.697
730 1 0.426 0.415 0.697
731 3 0.426 0.443571 0.697
732 3 0.426 0.386429 0.697
1716 7 0.293739 0.484373 0.552
2569 6 0.401 0.29 0.623
2570 7 0.417739 0.311627 0.623
2571 7 0.417739 0.268373 0.623
1141 2 0.028 0.051 0.975
1142 1 0.068 0.051 0.975
1143 3 0.068 0.0795714 0.975
1144 3 0.068 0.0224286 0.975
1145 1 0.148 0.051 0.975
1146 3 0.148 0.0795714 0.975
1147 3 0.148 0.0224286 0.975
1148 2 0.188 0.051 0.975
1149 1 0.228 0.051 0.975
1150 3 0.228 0.0795714 0.975
1151 3 0.228 0.0224286 0.975
1601 7 0.00473949 0.0126272 0.778
1753 6 0.131 0.164 0.912
1754 7 0.147739 0.185627 0.912
1755 7 0.147739 0.142373 0.912
1768 6 0.043 0.139 0.791
1769 7 0.0597395 0.160627 0.791
1770 7 0.0597395 0.117373 0.791
1849 6 0.05 0.067 0.85
1850 7 0.0667395 0.0886272 0.85
1851 7 0.0667395 0.0453728 0.85
1907 7 0.00573949 0.0576272 0.899
1908 7 0.00573949 0.0143728 0.899
2179 6 0.161 0.185 0.804
2180 7 0.177739 0.206627 0.804
2181 7 0.177739 0.163373 0.804
2455 6 0.156 0.023 0.875
2456 7 0.172739 0.0446272 0.875
2457 7 0.172739 0.00137285 0.875
2485 6 0.151 0.068 0.758
2486 7 0.167739 0.0896272 0.758
2487 7 0.167739 0.0463728 0.758
1152 1 0.308 0.051 0.975
1153 3 0.308 0.0795714 0.975
1154 3 0.308 0.0224286 0.975
1155 2 0.348 0.051 0.975
1156 1 0.388 0.051 0.975
1157 3 0.388 0.0795714 0.975
1158 3 0.388 0.0224286 0.975
1159 1 0.468 0.051 0.975
1160 3 0.468 0.0795714 0.975
1161 3 0.468 0.0224286 0.975
1579 6 0.275 0.101 0.798
1580 7 0.291739 0.122627 0.798
1581 7 0.291739 0.0793728 0.798
1708 6 0.402 0.239 0.894
1710 7 0.418739 0.217373 0.894
1792 6 0.458 0.08 0.824
1793 7 0.474739 0.101627 0.824
1794 7 0.474739 0.0583728 0.824
1873 6 0.301 0.203 0.808
1874 7 0.317739 0.224627 0.808
1875 7 0.317739 0.181373 0.808
2092 6 0.423 0.144 0.853
2093 7 0.439739 0.165627 0.853
2094 7 0.439739 0.122373 0.853
2111 7 0.258739 0.0166272 0.791
2203 6 0.264 0.153 0.957
2204 7 0.280739 0.174627 0.957
2205 7 0.280739 0.131373 0.957
2245 6 0.339 0.212 0.989
2246 7 0.355739 0.233627 0.989
2247 7 0.355739 0.190373 0.989
2308 6 0.44 0.063 0.895
2309 7 0.456739 0.0846272 0.895
2310 7 0.456739 0.0413728 0.895
2437 6 0.295 0.134 0.873
2438 7 0.311739 0.155627 0.873
2439 7 0.311739 0.112373 0.873
2460 7 0.310739 0.232373 0.952
2548 6 0.393 0.137 0.935
2549 7 0.409739 0.158627 0.935
2550 7 0.409739 0.115373 0.935
481 1 0.024 0.468 0.92
482 3 0.024 0.496571 0.92
483 3 0.024 0.439429 0.92
484 1 0.104 0.468 0.92
485 3 0.104 0.496571 0.92
486 3 0.104 0.439429 0.92
487 2 0.144 0.468 0.92
488 1 0.184 0.468 0.92
489 3 0.184 0.496571 0.92
490 3 0.184 0.439429 0.92
491 1 0.224 0.468 0.92
492 3 0.224 0.496571 0.92
493 3 0.224 0.439429 0.92
1435 6 0.141 0.37 0.756
1436 7 0.157739 0.391627 0.756
1437 7 0.157739 0.348373 0.756
1484 7 0.0157395 0.468627 0.999
1485 7 0.0157395 0.425373 0.999
1831 6 0.135 0.32 0.948
1832 7 0.151739 0.341627 0.948
1833 7 0.151739 0.298373 0.948
1846 6 0.163 0.494 0.796
1848 7 0.179739 0.472373 0.796
1879 6 0.114 0.348 0.823
1880 7 0.130739 0.369627 0.823
1881 7 0.130739 0.326373 0.823
2011 6 0.078 0.499 0.78
2013 7 0.0947395 0.477373 0.78
2137 6 0.223 0.322 0.935
2138 7 0.239739 0.343627 0.935
2139 7 0.239739 0.300373 0.935
2170 6 0.034 0.341 0.9
2171 7 0.0507395 0.362627 0.9
2172 7 0.0507395 0.319373 0.9
2194 6 0.226 0.369 0.871
2195 7 0.242739 0.390627 0.871
2196 7 0.242739 0.347373 0.871
2350 6 0.031 0.448 0.757
2351 7 0.0477395 0.469627 0.757
2352 7 0.0477395 0.426373 0.757
2404 6 0.117 0.279 0.879
2405 7 0.133739 0.300627 0.879
2406 7 0.133739 0.257373 0.879
2515 6 0.068 0.425 0.831
2516 7 0.0847395 0.446627 0.831
2517 7 0.0847395 0.403373 0.831
451 1 0.424 0.468 0.92
452 3 0.424 0.439429 0.92
453 3 0.424 0.496571 0.92
454 4 0.384 0.468 0.92
455 5 0.384 0.439429 0.92
456 1 0.464 0.468 0.92
457 3 0.464 0.496571 0.92
458 3 0.464 0.439429 0.92
494 4 0.264 0.468 0.92
495 5 0.264 0.496571 0.92
1417 6 0.423 0.346 0.826
1418 7 0.439739 0.367627 0.826
1419 7 0.439739 0.324373 0.826
1650 7 0.345739 0.481373 0.973
1660 6 0.397 0.347 0.951
1661 7 0.413739 0.368627 0.951
1662 7 0.413739 0.325373 0.951
1709 7 0.418739 0.260627 0.894
1789 6 0.293 0.416 0.781
1790 7 0.309739 0.437627 0.781
1791 7 0.309739 0.394373 0.781
1861 6 0.292 0.339 0.928
1862 7 0.308739 0.360627 0.928
1863 7 0.308739 0.317373 0.928
1921 6 0.389 0.458 0.763
1922 7 0.405739 0.479627 0.763
1923 7 0.405739 0.436373 0.763
2287 6 0.355 0.379 0.998
2288 7 0.371739 0.400627 0.998
2289 7 0.371739 0.357373 0.998
2418 7 0.342739 0.482373 0.889
2458 6 0.294 0.254 0.952
2459 7 0.310739 0.275627 0.952
2473 6 0.35 0.324 0.848
2474 7 0.366739 0.345627 0.848
2475 7 0.366739 0.302373 0.848
769 4 0.221 0.632 0.186
770 5 0.221 0.603429 0.186
803 1 0.021 0.632 0.186
804 3 0.021 0.660571 0.186
805 3 0.021 0.603429 0.186
806 1 0.061 0.632 0.186
807 3 0.061 0.660571 0.186
808 3 0.061 0.603429 0.186
809 4 0.101 0.632 0.186
810 5 0.101 0.660571 0.186
1477 6 0.138 0.724 0.09
1478 7 0.154739 0.745627 0.09
1479 7 0.154739 0.702373 0.09
1641 7 0.0277395 0.743373 0.109
1801 6 0.201 0.656 0.011
1802 7 0.217739 0.677627 0.011
1803 7 0.217739 0.634373 0.011
1856 7 0.116739 0.503627 0.083
2206 6 0.201 0.581 0.064
2207 7 0.217739 0.602627 0.064
2208 7 0.217739 0.559373 0.064
2349 7 0.112739 0.746373 0.045
2412 7 0.236739 0.742373 0.13
2440 6 0.042 0.547 0.119
2441 7 0.0587395 0.568627 0.119
2442 7 0.0587395 0.525373 0.119
766 1 0.261 0.632 0.186
767 3 0.261 0.603429 0.186
768 3 0.261 0.660571 0.186
771 1 0.301 0.632 0.186
772 3 0.301 0.660571 0.186
773 3 0.301 0.603429 0.186
774 2 0.341 0.632 0.186
775 1 0.381 0.632 0.186
776 3 0.381 0.660571 0.186
777 3 0.381 0.603429 0.186
778 1 0.461 0.632 0.186
779 3 0.461 0.660571 0.186
780 3 0.461 0.603429 0.186
1396 6 0.483 0.545 0.029
1397 7 0.499739 0.566627 0.029
1398 7 0.499739 0.523373 0.029
1633 6 0.384 0.557 0.08
1634 7 0.400739 0.578627 0.08
1635 7 0.400739 0.535373 0.08
1732 6 0.267 0.65 0.049
1733 7 0.283739 0.671627 0.049
1734 7 0.283739 0.628373 0.049
1804 6 0.492 0.671 0.039
1897 6 0.398 0.745 0.123
1899 7 0.414739 0.723373 0.123
1942 6 0.261 0.735 0.196
1944 7 0.277739 0.713373 0.196
2023 6 0.332 0.715 0.122
2024 7 0.348739 0.736627 0.122
2025 7 0.348739 0.693373 0.122
2035 6 0.254 0.532 0.15
2036 7 0.270739 0.553627 0.15
2037 7 0.270739 0.510373 0.15
2062 6 0.423 0.502 0.004
2063 7 0.439739 0.523627 0.004
2192 7 0.364739 0.514627 0.208
2271 7 0.359739 0.729373 0.045
2530 6 0.265 0.53 0.225
2531 7 0.281739 0.551627 0.225
2532 7 0.281739 0.508373 0.225
2544 7 0.399739 0.748373 0.217
2602 6 0.434 0.529 0.162
2603 7 0.450739 0.550627 0.162
2604 7 0.450739 0.507373 0.162
406 1 0.056 0.877 0.062
407 3 0.056 0.848429 0.062
408 3 0.056 0.905571 0.062
409 4 0.016 0.877 0.062
410 5 0.016 0.848429 0.062
411 1 0.096 0.877 0.062
412 3 0.096 0.905571 0.062
413 3 0.096 0.848429 0.062
414 2 0.136 0.877 0.062
415 1 0.176 0.877 0.062
416 3 0.176 0.905571 0.062
417 3 0.176 0.848429 0.062
1048 1 0.015 0.87 0.165
1049 3 0.015 0.898571 0.165
1050 3 0.015 0.841429 0.165
1051 2 0.055 0.87 0.165
1052 1 0.095 0.87 0.165
1053 3 0.095 0.898571 0.165
1054 3 0.095 0.841429 0.165
1055 1 0.175 0.87 0.165
1056 3 0.175 0.898571 0.165
1057 3 0.175 0.841429 0.165
1058 2 0.215 0.87 0.165
1352 7 0.00973949 0.998627 0.082
1353 7 0.00973949 0.955373 0.082
1404 7 0.190739 0.992373 0.165
1639 6 0.011 0.765 0.109
1640 7 0.0277395 0.786627 0.109
1903 6 0.179 0.972 0.02
1904 7 0.195739 0.993627 0.02
1905 7 0.195739 0.950373 0.02
1939 6 0.104 0.975 0.145
1940 7 0.120739 0.996627 0.145
1941 7 0.120739 0.953373 0.145
1953 7 0.0397395 0.998373 0.152
2347 6 0.096 0.768 0.045
2348 7 0.112739 0.789627 0.045
2410 6 0.22 0.764 0.13
2411 7 0.236739 0.785627 0.13
418 1 0.256 0.877 0.062
419 3 0.256 0.905571 0.062
420 3 0.256 0.848429 0.062
421 2 0.296 0.877 0.062
422 1 0.336 0.877 0.062
423 3 0.336 0.905571 0.062
424 3 0.336 0.848429 0.062
425 1 0.416 0.877 0.062
426 3 0.416 0.905571 0.062
427 3 0.416 0.848429 0.062
428 2 0.456 0.877 0.062
429 1 0.496 0.877 0.062
430 3 0.496 0.905571 0.062
431 3 0.496 0.848429 0.062
1059 1 0.255 0.87 0.165
1060 3 0.255 0.898571 0.165
1061 3 0.255 0.841429 0.165
1062 1 0.335 0.87 0.165
1063 3 0.335 0.898571 0.165
1064 3 0.335 0.841429 0.165
1065 2 0.375 0.87 0.165
1066 1 0.415 0.87 0.165
1067 3 0.415 0.898571 0.165
1068 3 0.415 0.841429 0.165
1069 1 0.495 0.87 0.165
1070 3 0.495 0.898571 0.165
1071 3 0.495 0.841429 0.165
1705 6 0.393 0.968 0.127
1706 7 0.409739 0.989627 0.127
1707 7 0.409739 0.946373 0.127
1898 7 0.414739 0.766627 0.123
1943 7 0.277739 0.756627 0.196
1968 7 0.271739 0.990373 0.189
2230 6 0.376 0.973 0.022
2231 7 0.392739 0.994627 0.022
2232 7 0.392739 0.951373 0.022
2260 6 0.308 0.971 0.075
2261 7 0.324739 0.992627 0.075
2262 7 0.324739 0.949373 0.075
2269 6 0.343 0.751 0.045
2270 7 0.359739 0.772627 0.045
2542 6 0.383 0.77 0.217
2543 7 0.399739 0.791627 0.217
934 1 0.014 0.733 0.498
936 3 0.014 0.704429 0.498
937 2 0.054 0.733 0.498
938 1 0.094 0.733 0.498
940 3 0.094 0.704429 0.498
941 1 0.134 0.733 0.498
943 3 0.134 0.704429 0.498
944 4 0.174 0.733 0.498
1081 1 0.05 0.732 0.294
1082 3 0.05 0.703429 0.294
1084 4 0.01 0.732 0.294
1085 5 0.01 0.703429 0.294
1086 1 0.09 0.732 0.294
1088 3 0.09 0.703429 0.294
1089 2 0.13 0.732 0.294
1090 1 0.17 0.732 0.294
1092 3 0.17 0.703429 0.294
1261 1 0.009 0.637 0.379
1262 3 0.009 0.608429 0.379
1263 3 0.009 0.665571 0.379
1266 1 0.049 0.637 0.379
1267 3 0.049 0.665571 0.379
1268 3 0.049 0.608429 0.379
1269 2 0.089 0.637 0.379
1270 1 0.129 0.637 0.379
1271 3 0.129 0.665571 0.379
1272 3 0.129 0.608429 0.379
1273 1 0.209 0.637 0.379
1274 3 0.209 0.665571 0.379
1275 3 0.209 0.608429 0.379
1276 2 0.249 0.637 0.379
1426 6 0.14 0.515 0.266
1427 7 0.156739 0.536627 0.266
1912 6 0.248 0.639 0.456
1954 6 0.029 0.516 0.496
1955 7 0.0457395 0.537627 0.496
1981 6 0.177 0.547 0.344
1982 7 0.193739 0.568627 0.344
1983 7 0.193739 0.525373 0.344
2039 7 0.0127395 0.615627 0.454
2040 7 0.0127395 0.572373 0.454
2071 6 0.13 0.593 0.449
2072 7 0.146739 0.614627 0.449
2073 7 0.146739 0.571373 0.449
2242 6 0.081 0.557 0.346
2243 7 0.0977395 0.578627 0.346
2244 7 0.0977395 0.535373 0.346
901 1 0.334 0.733 0.498
902 3 0.334 0.704429 0.498
904 4 0.294 0.733 0.498
905 5 0.294 0.704429 0.498
906 1 0.374 0.733 0.498
908 3 0.374 0.704429 0.498
909 2 0.414 0.733 0.498
910 1 0.454 0.733 0.498
912 3 0.454 0.704429 0.498
1093 1 0.25 0.732 0.294
1095 3 0.25 0.703429 0.294
1096 2 0.29 0.732 0.294
1097 1 0.33 0.732 0.294
1099 3 0.33 0.703429 0.294
1100 1 0.41 0.732 0.294
1102 3 0.41 0.703429 0.294
1103 2 0.45 0.732 0.294
1104 1 0.49 0.732 0.294
1106 3 0.49 0.703429 0.294
1277 1 0.289 0.637 0.379
1278 3 0.289 0.665571 0.379
1279 3 0.289 0.608429 0.379
1280 1 0.369 0.637 0.379
1281 3 0.369 0.665571 0.379
1282 3 0.369 0.608429 0.379
1283 2 0.409 0.637 0.379
1284 1 0.449 0.637 0.379
1285 3 0.449 0.665571 0.379
1286 3 0.449 0.608429 0.379
1360 6 0.289 0.57 0.288
1361 7 0.305739 0.591627 0.288
1362 7 0.305739 0.548373 0.288
1723 6 0.371 0.579 0.489
1724 7 0.387739 0.600627 0.489
1725 7 0.387739 0.557373 0.489
1909 6 0.419 0.614 0.299
1910 7 0.435739 0.635627 0.299
1911 7 0.435739 0.592373 0.299
1913 7 0.264739 0.660627 0.456
1914 7 0.264739 0.617373 0.456
2001 7 0.434739 0.730373 0.376
2095 6 0.267 0.513 0.46
2096 7 0.283739 0.534627 0.46
679 4 0.215 0.927 0.26
680 5 0.215 0.898429 0.26
713 1 0.015 0.927 0.26
714 3 0.015 0.955571 0.26
715 3 0.015 0.898429 0.26
716 1 0.055 0.927 0.26
717 3 0.055 0.955571 0.26
718 3 0.055 0.898429 0.26
719 4 0.095 0.927 0.26
720 5 0.095 0.955571 0.26
935 3 0.014 0.761571 0.498
939 3 0.094 0.761571 0.498
942 3 0.134 0.761571 0.498
945 5 0.174 0.761571 0.498
1083 3 0.05 0.760571 0.294
1087 3 0.09 0.760571 0.294
1091 3 0.17 0.760571 0.294
1425 7 0.130739 0.990373 0.317
1441 6 0.006 0.974 0.448
1442 7 0.0227395 0.995627 0.448
1443 7 0.0227395 0.952373 0.448
1447 6 0.078 0.823 0.38
1448 7 0.0947395 0.844627 0.38
1449 7 0.0947395 0.801373 0.38
1462 6 0.17 0.935 0.38
1463 7 0.186739 0.956627 0.38
1464 7 0.186739 0.913373 0.38
2113 6 0.015 0.82 0.25
2114 7 0.0317395 0.841627 0.25
2115 7 0.0317395 0.798373 0.25
2224 6 0.12 0.817 0.255
2225 7 0.136739 0.838627 0.255
2226 7 0.136739 0.795373 0.255
2356 6 0.086 0.926 0.386
2357 7 0.102739 0.947627 0.386
2358 7 0.102739 0.904373 0.386
2446 6 0.195 0.859 0.316
2447 7 0.211739 0.880627 0.316
2448 7 0.211739 0.837373 0.316
676 1 0.255 0.927 0.26
677 3 0.255 0.898429 0.26
678 3 0.255 0.955571 0.26
681 1 0.295 0.927 0.26
682 3 0.295 0.955571 0.26
683 3 0.295 0.898429 0.26
684 2 0.335 0.927 0.26
685 1 0.375 0.927 0.26
686 3 0.375 0.955571 0.26
687 3 0.375 0.898429 0.26
688 1 0.455 0.927 0.26
689 3 0.455 0.955571 0.26
690 3 0.455 0.898429 0.26
691 2 0.495 0.927 0.26
903 3 0.334 0.761571 0.498
907 3 0.374 0.761571 0.498
911 3 0.454 0.761571 0.498
1094 3 0.25 0.760571 0.294
1098 3 0.33 0.760571 0.294
1101 3 0.41 0.760571 0.294
1105 3 0.49 0.760571 0.294
1410 7 0.435739 0.996373 0.315
1540 6 0.396 0.843 0.428
1541 7 0.412739 0.864627 0.428
1542 7 0.412739 0.821373 0.428
1999 6 0.418 0.752 0.376
2000 7 0.434739 0.773627 0.376
2002 6 0.456 0.883 0.335
2003 7 0.472739 0.904627 0.335
2004 7 0.472739 0.861373 0.335
2299 6 0.264 0.911 0.329
2300 7 0.280739 0.932627 0.329
2301 7 0.280739 0.889373 0.329
2509 6 0.325 0.775 0.374
2510 7 0.341739 0.796627 0.374
2511 7 0.341739 0.753373 0.374
2581 6 0.371 0.889 0.371
2582 7 0.387739 0.910627 0.371
2583 7 0.387739 0.867373 0.371
271 1 0.059 0.74 0.663
272 3 0.059 0.711429 0.663
274 4 0.019 0.74 0.663
275 5 0.019 0.711429 0.663
276 1 0.099 0.74 0.663
278 3 0.099 0.711429 0.663
279 2 0.139 0.74 0.663
280 1 0.179 0.74 0.663
282 3 0.179 0.711429 0.663
1384 6 0.182 0.55 0.706
1385 7 0.198739 0.571627 0.706
1386 7 0.198739 0.528373 0.706
1420 6 0.197 0.634 0.52
1421 7 0.213739 0.655627 0.52
1422 7 0.213739 0.612373 0.52
1444 6 0.02 0.643 0.677
1445 7 0.0367395 0.664627 0.677
1446 7 0.0367395 0.621373 0.677
1486 6 0.127 0.59 0.696
1487 7 0.143739 0.611627 0.696
1488 7 0.143739 0.568373 0.696
1534 6 0.045 0.556 0.64
1535 7 0.0617395 0.577627 0.64
1536 7 0.0617395 0.534373 0.64
1609 6 0.162 0.554 0.534
1610 7 0.178739 0.575627 0.534
1611 7 0.178739 0.532373 0.534
1651 6 0.223 0.637 0.695
1652 7 0.239739 0.658627 0.695
1653 7 0.239739 0.615373 0.695
2014 6 0.228 0.577 0.587
2015 7 0.244739 0.598627 0.587
2016 7 0.244739 0.555373 0.587
2134 6 0.061 0.59 0.54
2135 7 0.0777395 0.611627 0.54
2136 7 0.0777395 0.568373 0.54
2155 6 0.085 0.528 0.709
2156 7 0.101739 0.549627 0.709
2157 7 0.101739 0.506373 0.709
2341 6 0.183 0.613 0.639
2342 7 0.199739 0.634627 0.639
2343 7 0.199739 0.591373 0.639
2368 6 0.118 0.673 0.571
2369 7 0.134739 0.694627 0.571
2370 7 0.134739 0.651373 0.571
2608 6 0.133 0.524 0.611
2609 7 0.149739 0.545627 0.611
2610 7 0.149739 0.502373 0.611
283 1 0.259 0.74 0.663
285 3 0.259 0.711429 0.663
286 2 0.299 0.74 0.663
287 1 0.339 0.74 0.663
289 3 0.339 0.711429 0.663
290 1 0.419 0.74 0.663
292 3 0.419 0.711429 0.663
293 2 0.459 0.74 0.663
294 1 0.499 0.74 0.663
296 3 0.499 0.711429 0.663
1546 6 0.414 0.657 0.614
1547 7 0.430739 0.678627 0.614
1548 7 0.430739 0.635373 0.614
1564 6 0.287 0.581 0.729
1565 7 0.303739 0.602627 0.729
1566 7 0.303739 0.559373 0.729
1684 6 0.481 0.582 0.671
1685 7 0.497739 0.603627 0.671
1686 7 0.497739 0.560373 0.671
1693 6 0.417 0.564 0.562
1694 7 0.433739 0.585627 0.562
1695 7 0.433739 0.542373 0.562
1714 6 0.277 0.506 0.552
1715 7 0.293739 0.527627 0.552
1918 6 0.367 0.707 0.567
1919 7 0.383739 0.728627 0.567
1920 7 0.383739 0.685373 0.567
1927 6 0.307 0.652 0.557
1928 7 0.323739 0.673627 0.557
1929 7 0.323739 0.630373 0.557
1998 7 0.300739 0.743373 0.737
2566 6 0.386 0.563 0.73
2567 7 0.402739 0.584627 0.73
2568 7 0.402739 0.541373 0.73
273 3 0.059 0.768571 0.663
277 3 0.099 0.768571 0.663
281 3 0.179 0.768571 0.663
631 1 0.082 0.932 0.504
632 3 0.082 0.903429 0.504
633 3 0.082 0.960571 0.504
634 4 0.042 0.932 0.504
635 5 0.042 0.903429 0.504
636 1 0.122 0.932 0.504
637 3 0.122 0.960571 0.504
638 3 0.122 0.903429 0.504
639 2 0.162 0.932 0.504
640 1 0.202 0.932 0.504
641 3 0.202 0.960571 0.504
642 3 0.202 0.903429 0.504
885 2 0.038 0.913 0.603
886 1 0.078 0.913 0.603
887 3 0.078 0.941571 0.603
888 3 0.078 0.884429 0.603
889 1 0.158 0.913 0.603
890 3 0.158 0.941571 0.603
891 3 0.158 0.884429 0.603
892 2 0.198 0.913 0.603
893 1 0.238 0.913 0.603
894 3 0.238 0.941571 0.603
895 3 0.238 0.884429 0.603
1522 6 0.245 0.856 0.726
1980 7 0.132739 0.983373 0.628
2233 6 0.008 0.969 0.689
2234 7 0.0247395 0.990627 0.689
2235 7 0.0247395 0.947373 0.689
2248 6 0.09 0.846 0.747
2249 7 0.106739 0.867627 0.747
2250 7 0.106739 0.824373 0.747
2311 6 0.045 0.823 0.551
2312 7 0.0617395 0.844627 0.551
2313 7 0.0617395 0.801373 0.551
284 3 0.259 0.768571 0.663
288 3 0.339 0.768571 0.663
291 3 0.419 0.768571 0.663