# LAMMPS data file 

2610 atoms
2160 bonds
2790 angles
1500 dihedrals

7 atom types
6 bond types
9 angle types
14 dihedral types

-17.5 17.5 xlo xhi
-17.5 17.5 ylo yhi
-17.5 17.5 zlo zhi

Atoms

1 1 1 0.05 21.769999999999996 21.14 25.165 
2 1 3 0.09 21.769999999999996 20.139999999999997 25.165 
3 1 3 0.09 21.769999999999996 22.14 25.165 
4 1 4 -0.65 20.369999999999997 21.14 25.165 
5 1 5 0.42 20.369999999999997 20.139999999999997 25.165 
6 1 1 -0.01 23.169999999999998 21.14 25.165 
7 1 3 0.09 23.169999999999998 22.14 25.165 
8 1 3 0.09 23.169999999999998 20.139999999999997 25.165 
9 1 2 -0.34 24.57 21.14 25.165 
10 1 1 -0.01 25.97 21.14 25.165 
11 1 3 0.09 25.97 22.14 25.165 
12 1 3 0.09 25.97 20.139999999999997 25.165 
13 1 1 -0.01 28.769999999999996 21.14 25.165 
14 1 3 0.09 28.769999999999996 22.14 25.165 
15 1 3 0.09 28.769999999999996 20.139999999999997 25.165 
16 1 2 -0.34 30.169999999999998 21.14 25.165 
17 1 1 -0.01 31.57 21.14 25.165 
18 1 3 0.09 31.57 22.14 25.165 
19 1 3 0.09 31.57 20.139999999999997 25.165 
20 1 1 -0.01 34.37 21.14 25.165 
21 1 3 0.09 34.37 22.14 25.165 
22 1 3 0.09 34.37 20.139999999999997 25.165 
23 1 2 -0.34 35.769999999999996 21.14 25.165 
24 1 1 -0.01 37.17 21.14 25.165 
25 1 3 0.09 37.17 22.14 25.165 
26 1 3 0.09 37.17 20.139999999999997 25.165 
27 1 1 -0.01 39.97 21.14 25.165 
28 1 3 0.09 39.97 22.14 25.165 
29 1 3 0.09 39.97 20.139999999999997 25.165 
30 1 2 -0.34 41.370000000000005 21.14 25.165 
31 1 1 -0.01 42.77 21.14 25.165 
32 1 3 0.09 42.77 22.14 25.165 
33 1 3 0.09 42.77 20.139999999999997 25.165 
34 1 1 -0.01 45.57000000000001 21.14 25.165 
35 1 3 0.09 45.57000000000001 22.14 25.165 
36 1 3 0.09 45.57000000000001 20.139999999999997 25.165 
37 1 2 -0.34 46.97 21.14 25.165 
38 1 1 -0.01 48.37 21.14 25.165 
39 1 3 0.09 48.37 22.14 25.165 
40 1 3 0.09 48.37 20.139999999999997 25.165 
41 1 1 0.05 49.77 21.14 25.165 
42 1 3 0.09 49.77 22.14 25.165 
43 1 3 0.09 49.77 20.139999999999997 25.165 
44 1 4 -0.65 51.17 21.14 25.165 
45 1 5 0.42 51.17 22.14 25.165 
46 2 1 0.05 2.3449999999999993 7.875 11.305 
47 2 3 0.09 2.3449999999999993 6.875 11.305 
48 2 3 0.09 2.3449999999999993 8.875 11.305 
49 2 4 -0.65 0.9449999999999992 7.875 11.305 
50 2 5 0.42 0.9449999999999992 6.875 11.305 
51 2 1 -0.01 3.744999999999999 7.875 11.305 
52 2 3 0.09 3.744999999999999 8.875 11.305 
53 2 3 0.09 3.744999999999999 6.875 11.305 
54 2 2 -0.34 5.145 7.875 11.305 
55 2 1 -0.01 6.545 7.875 11.305 
56 2 3 0.09 6.545 8.875 11.305 
57 2 3 0.09 6.545 6.875 11.305 
58 2 1 -0.01 9.345 7.875 11.305 
59 2 3 0.09 9.345 8.875 11.305 
60 2 3 0.09 9.345 6.875 11.305 
61 2 2 -0.34 10.745000000000001 7.875 11.305 
62 2 1 -0.01 12.145000000000001 7.875 11.305 
63 2 3 0.09 12.145000000000001 8.875 11.305 
64 2 3 0.09 12.145000000000001 6.875 11.305 
65 2 1 -0.01 14.945 7.875 11.305 
66 2 3 0.09 14.945 8.875 11.305 
67 2 3 0.09 14.945 6.875 11.305 
68 2 2 -0.34 16.345 7.875 11.305 
69 2 1 -0.01 17.745 7.875 11.305 
70 2 3 0.09 17.745 8.875 11.305 
71 2 3 0.09 17.745 6.875 11.305 
72 2 1 -0.01 20.545 7.875 11.305 
73 2 3 0.09 20.545 8.875 11.305 
74 2 3 0.09 20.545 6.875 11.305 
75 2 2 -0.34 21.945 7.875 11.305 
76 2 1 -0.01 23.345000000000002 7.875 11.305 
77 2 3 0.09 23.345000000000002 8.875 11.305 
78 2 3 0.09 23.345000000000002 6.875 11.305 
79 2 1 -0.01 26.145 7.875 11.305 
80 2 3 0.09 26.145 8.875 11.305 
81 2 3 0.09 26.145 6.875 11.305 
82 2 2 -0.34 27.545 7.875 11.305 
83 2 1 -0.01 28.945000000000004 7.875 11.305 
84 2 3 0.09 28.945000000000004 8.875 11.305 
85 2 3 0.09 28.945000000000004 6.875 11.305 
86 2 1 0.05 30.345000000000006 7.875 11.305 
87 2 3 0.09 30.345000000000006 8.875 11.305 
88 2 3 0.09 30.345000000000006 6.875 11.305 
89 2 4 -0.65 31.745 7.875 11.305 
90 2 5 0.42 31.745 8.875 11.305 
91 3 1 0.05 -1.2250000000000003 30.555 1.33 
92 3 3 0.09 -1.2250000000000003 29.555 1.33 
93 3 3 0.09 -1.2250000000000003 31.555 1.33 
94 3 4 -0.65 -2.625000000000001 30.555 1.33 
95 3 5 0.42 -2.625000000000001 29.555 1.33 
96 3 1 -0.01 0.17499999999999988 30.555 1.33 
97 3 3 0.09 0.17499999999999988 31.555 1.33 
98 3 3 0.09 0.17499999999999988 29.555 1.33 
99 3 2 -0.34 1.575 30.555 1.33 
100 3 1 -0.01 2.9749999999999996 30.555 1.33 
101 3 3 0.09 2.9749999999999996 31.555 1.33 
102 3 3 0.09 2.9749999999999996 29.555 1.33 
103 3 1 -0.01 5.775 30.555 1.33 
104 3 3 0.09 5.775 31.555 1.33 
105 3 3 0.09 5.775 29.555 1.33 
106 3 2 -0.34 7.175000000000001 30.555 1.33 
107 3 1 -0.01 8.575000000000001 30.555 1.33 
108 3 3 0.09 8.575000000000001 31.555 1.33 
109 3 3 0.09 8.575000000000001 29.555 1.33 
110 3 1 -0.01 11.375000000000002 30.555 1.33 
111 3 3 0.09 11.375000000000002 31.555 1.33 
112 3 3 0.09 11.375000000000002 29.555 1.33 
113 3 2 -0.34 12.775 30.555 1.33 
114 3 1 -0.01 14.175000000000002 30.555 1.33 
115 3 3 0.09 14.175000000000002 31.555 1.33 
116 3 3 0.09 14.175000000000002 29.555 1.33 
117 3 1 -0.01 16.975 30.555 1.33 
118 3 3 0.09 16.975 31.555 1.33 
119 3 3 0.09 16.975 29.555 1.33 
120 3 2 -0.34 18.375 30.555 1.33 
121 3 1 -0.01 19.775000000000002 30.555 1.33 
122 3 3 0.09 19.775000000000002 31.555 1.33 
123 3 3 0.09 19.775000000000002 29.555 1.33 
124 3 1 -0.01 22.575000000000003 30.555 1.33 
125 3 3 0.09 22.575000000000003 31.555 1.33 
126 3 3 0.09 22.575000000000003 29.555 1.33 
127 3 2 -0.34 23.975000000000005 30.555 1.33 
128 3 1 -0.01 25.375000000000007 30.555 1.33 
129 3 3 0.09 25.375000000000007 31.555 1.33 
130 3 3 0.09 25.375000000000007 29.555 1.33 
131 3 1 0.05 26.775000000000006 30.555 1.33 
132 3 3 0.09 26.775000000000006 31.555 1.33 
133 3 3 0.09 26.775000000000006 29.555 1.33 
134 3 4 -0.65 28.175000000000004 30.555 1.33 
135 3 5 0.42 28.175000000000004 31.555 1.33 
136 4 1 0.05 15.995000000000001 4.83 13.895 
137 4 3 0.09 15.995000000000001 3.83 13.895 
138 4 3 0.09 15.995000000000001 5.830000000000001 13.895 
139 4 4 -0.65 14.595000000000002 4.83 13.895 
140 4 5 0.42 14.595000000000002 3.83 13.895 
141 4 1 -0.01 17.395 4.83 13.895 
142 4 3 0.09 17.395 5.830000000000001 13.895 
143 4 3 0.09 17.395 3.83 13.895 
144 4 2 -0.34 18.795 4.83 13.895 
145 4 1 -0.01 20.195000000000004 4.83 13.895 
146 4 3 0.09 20.195000000000004 5.830000000000001 13.895 
147 4 3 0.09 20.195000000000004 3.83 13.895 
148 4 1 -0.01 22.995 4.83 13.895 
149 4 3 0.09 22.995 5.830000000000001 13.895 
150 4 3 0.09 22.995 3.83 13.895 
151 4 2 -0.34 24.395000000000003 4.83 13.895 
152 4 1 -0.01 25.795 4.83 13.895 
153 4 3 0.09 25.795 5.830000000000001 13.895 
154 4 3 0.09 25.795 3.83 13.895 
155 4 1 -0.01 28.595000000000002 4.83 13.895 
156 4 3 0.09 28.595000000000002 5.830000000000001 13.895 
157 4 3 0.09 28.595000000000002 3.83 13.895 
158 4 2 -0.34 29.995000000000005 4.83 13.895 
159 4 1 -0.01 31.395000000000003 4.83 13.895 
160 4 3 0.09 31.395000000000003 5.830000000000001 13.895 
161 4 3 0.09 31.395000000000003 3.83 13.895 
162 4 1 -0.01 34.195 4.83 13.895 
163 4 3 0.09 34.195 5.830000000000001 13.895 
164 4 3 0.09 34.195 3.83 13.895 
165 4 2 -0.34 35.595000000000006 4.83 13.895 
166 4 1 -0.01 36.995000000000005 4.83 13.895 
167 4 3 0.09 36.995000000000005 5.830000000000001 13.895 
168 4 3 0.09 36.995000000000005 3.83 13.895 
169 4 1 -0.01 39.795 4.83 13.895 
170 4 3 0.09 39.795 5.830000000000001 13.895 
171 4 3 0.09 39.795 3.83 13.895 
172 4 2 -0.34 41.19500000000001 4.83 13.895 
173 4 1 -0.01 42.59500000000001 4.83 13.895 
174 4 3 0.09 42.59500000000001 5.830000000000001 13.895 
175 4 3 0.09 42.59500000000001 3.83 13.895 
176 4 1 0.05 43.995000000000005 4.83 13.895 
177 4 3 0.09 43.995000000000005 5.830000000000001 13.895 
178 4 3 0.09 43.995000000000005 3.83 13.895 
179 4 4 -0.65 45.395 4.83 13.895 
180 4 5 0.42 45.395 5.830000000000001 13.895 
181 5 1 0.05 14.524999999999999 25.97 22.680000000000003 
182 5 3 0.09 14.524999999999999 24.97 22.680000000000003 
183 5 3 0.09 14.524999999999999 26.97 22.680000000000003 
184 5 4 -0.65 13.125 25.97 22.680000000000003 
185 5 5 0.42 13.125 24.97 22.680000000000003 
186 5 1 -0.01 15.924999999999997 25.97 22.680000000000003 
187 5 3 0.09 15.924999999999997 26.97 22.680000000000003 
188 5 3 0.09 15.924999999999997 24.97 22.680000000000003 
189 5 2 -0.34 17.325 25.97 22.680000000000003 
190 5 1 -0.01 18.725 25.97 22.680000000000003 
191 5 3 0.09 18.725 26.97 22.680000000000003 
192 5 3 0.09 18.725 24.97 22.680000000000003 
193 5 1 -0.01 21.525 25.97 22.680000000000003 
194 5 3 0.09 21.525 26.97 22.680000000000003 
195 5 3 0.09 21.525 24.97 22.680000000000003 
196 5 2 -0.34 22.925 25.97 22.680000000000003 
197 5 1 -0.01 24.325000000000003 25.97 22.680000000000003 
198 5 3 0.09 24.325000000000003 26.97 22.680000000000003 
199 5 3 0.09 24.325000000000003 24.97 22.680000000000003 
200 5 1 -0.01 27.125 25.97 22.680000000000003 
201 5 3 0.09 27.125 26.97 22.680000000000003 
202 5 3 0.09 27.125 24.97 22.680000000000003 
203 5 2 -0.34 28.525 25.97 22.680000000000003 
204 5 1 -0.01 29.925 25.97 22.680000000000003 
205 5 3 0.09 29.925 26.97 22.680000000000003 
206 5 3 0.09 29.925 24.97 22.680000000000003 
207 5 1 -0.01 32.725 25.97 22.680000000000003 
208 5 3 0.09 32.725 26.97 22.680000000000003 
209 5 3 0.09 32.725 24.97 22.680000000000003 
210 5 2 -0.34 34.125 25.97 22.680000000000003 
211 5 1 -0.01 35.525000000000006 25.97 22.680000000000003 
212 5 3 0.09 35.525000000000006 26.97 22.680000000000003 
213 5 3 0.09 35.525000000000006 24.97 22.680000000000003 
214 5 1 -0.01 38.325 25.97 22.680000000000003 
215 5 3 0.09 38.325 26.97 22.680000000000003 
216 5 3 0.09 38.325 24.97 22.680000000000003 
217 5 2 -0.34 39.725 25.97 22.680000000000003 
218 5 1 -0.01 41.12500000000001 25.97 22.680000000000003 
219 5 3 0.09 41.12500000000001 26.97 22.680000000000003 
220 5 3 0.09 41.12500000000001 24.97 22.680000000000003 
221 5 1 0.05 42.525000000000006 25.97 22.680000000000003 
222 5 3 0.09 42.525000000000006 26.97 22.680000000000003 
223 5 3 0.09 42.525000000000006 24.97 22.680000000000003 
224 5 4 -0.65 43.925 25.97 22.680000000000003 
225 5 5 0.42 43.925 26.97 22.680000000000003 
226 6 1 0.05 7.5600000000000005 25.76 29.819999999999997 
227 6 3 0.09 7.5600000000000005 24.759999999999998 29.819999999999997 
228 6 3 0.09 7.5600000000000005 26.76 29.819999999999997 
229 6 4 -0.65 6.16 25.76 29.819999999999997 
230 6 5 0.42 6.16 24.759999999999998 29.819999999999997 
231 6 1 -0.01 8.96 25.76 29.819999999999997 
232 6 3 0.09 8.96 26.76 29.819999999999997 
233 6 3 0.09 8.96 24.759999999999998 29.819999999999997 
234 6 2 -0.34 10.36 25.76 29.819999999999997 
235 6 1 -0.01 11.760000000000002 25.76 29.819999999999997 
236 6 3 0.09 11.760000000000002 26.76 29.819999999999997 
237 6 3 0.09 11.760000000000002 24.759999999999998 29.819999999999997 
238 6 1 -0.01 14.559999999999999 25.76 29.819999999999997 
239 6 3 0.09 14.559999999999999 26.76 29.819999999999997 
240 6 3 0.09 14.559999999999999 24.759999999999998 29.819999999999997 
241 6 2 -0.34 15.96 25.76 29.819999999999997 
242 6 1 -0.01 17.360000000000003 25.76 29.819999999999997 
243 6 3 0.09 17.360000000000003 26.76 29.819999999999997 
244 6 3 0.09 17.360000000000003 24.759999999999998 29.819999999999997 
245 6 1 -0.01 20.16 25.76 29.819999999999997 
246 6 3 0.09 20.16 26.76 29.819999999999997 
247 6 3 0.09 20.16 24.759999999999998 29.819999999999997 
248 6 2 -0.34 21.560000000000002 25.76 29.819999999999997 
249 6 1 -0.01 22.96 25.76 29.819999999999997 
250 6 3 0.09 22.96 26.76 29.819999999999997 
251 6 3 0.09 22.96 24.759999999999998 29.819999999999997 
252 6 1 -0.01 25.76 25.76 29.819999999999997 
253 6 3 0.09 25.76 26.76 29.819999999999997 
254 6 3 0.09 25.76 24.759999999999998 29.819999999999997 
255 6 2 -0.34 27.160000000000004 25.76 29.819999999999997 
256 6 1 -0.01 28.560000000000002 25.76 29.819999999999997 
257 6 3 0.09 28.560000000000002 26.76 29.819999999999997 
258 6 3 0.09 28.560000000000002 24.759999999999998 29.819999999999997 
259 6 1 -0.01 31.36 25.76 29.819999999999997 
260 6 3 0.09 31.36 26.76 29.819999999999997 
261 6 3 0.09 31.36 24.759999999999998 29.819999999999997 
262 6 2 -0.34 32.760000000000005 25.76 29.819999999999997 
263 6 1 -0.01 34.160000000000004 25.76 29.819999999999997 
264 6 3 0.09 34.160000000000004 26.76 29.819999999999997 
265 6 3 0.09 34.160000000000004 24.759999999999998 29.819999999999997 
266 6 1 0.05 35.56 25.76 29.819999999999997 
267 6 3 0.09 35.56 26.76 29.819999999999997 
268 6 3 0.09 35.56 24.759999999999998 29.819999999999997 
269 6 4 -0.65 36.96 25.76 29.819999999999997 
270 6 5 0.42 36.96 26.76 29.819999999999997 
271 7 1 0.05 19.564999999999998 8.4 5.705 
272 7 3 0.09 19.564999999999998 7.4 5.705 
273 7 3 0.09 19.564999999999998 9.399999999999999 5.705 
274 7 4 -0.65 18.165 8.4 5.705 
275 7 5 0.42 18.165 7.4 5.705 
276 7 1 -0.01 20.964999999999996 8.4 5.705 
277 7 3 0.09 20.964999999999996 9.399999999999999 5.705 
278 7 3 0.09 20.964999999999996 7.4 5.705 
279 7 2 -0.34 22.365 8.4 5.705 
280 7 1 -0.01 23.765 8.4 5.705 
281 7 3 0.09 23.765 9.399999999999999 5.705 
282 7 3 0.09 23.765 7.4 5.705 
283 7 1 -0.01 26.564999999999998 8.4 5.705 
284 7 3 0.09 26.564999999999998 9.399999999999999 5.705 
285 7 3 0.09 26.564999999999998 7.4 5.705 
286 7 2 -0.34 27.965 8.4 5.705 
287 7 1 -0.01 29.365000000000002 8.4 5.705 
288 7 3 0.09 29.365000000000002 9.399999999999999 5.705 
289 7 3 0.09 29.365000000000002 7.4 5.705 
290 7 1 -0.01 32.165 8.4 5.705 
291 7 3 0.09 32.165 9.399999999999999 5.705 
292 7 3 0.09 32.165 7.4 5.705 
293 7 2 -0.34 33.565 8.4 5.705 
294 7 1 -0.01 34.965 8.4 5.705 
295 7 3 0.09 34.965 9.399999999999999 5.705 
296 7 3 0.09 34.965 7.4 5.705 
297 7 1 -0.01 37.765 8.4 5.705 
298 7 3 0.09 37.765 9.399999999999999 5.705 
299 7 3 0.09 37.765 7.4 5.705 
300 7 2 -0.34 39.165 8.4 5.705 
301 7 1 -0.01 40.565 8.4 5.705 
302 7 3 0.09 40.565 9.399999999999999 5.705 
303 7 3 0.09 40.565 7.4 5.705 
304 7 1 -0.01 43.365 8.4 5.705 
305 7 3 0.09 43.365 9.399999999999999 5.705 
306 7 3 0.09 43.365 7.4 5.705 
307 7 2 -0.34 44.765 8.4 5.705 
308 7 1 -0.01 46.165000000000006 8.4 5.705 
309 7 3 0.09 46.165000000000006 9.399999999999999 5.705 
310 7 3 0.09 46.165000000000006 7.4 5.705 
311 7 1 0.05 47.56500000000001 8.4 5.705 
312 7 3 0.09 47.56500000000001 9.399999999999999 5.705 
313 7 3 0.09 47.56500000000001 7.4 5.705 
314 7 4 -0.65 48.964999999999996 8.4 5.705 
315 7 5 0.42 48.964999999999996 9.399999999999999 5.705 
316 8 1 0.05 23.345000000000002 21.035 20.404999999999998 
317 8 3 0.09 23.345000000000002 20.034999999999997 20.404999999999998 
318 8 3 0.09 23.345000000000002 22.035 20.404999999999998 
319 8 4 -0.65 21.945 21.035 20.404999999999998 
320 8 5 0.42 21.945 20.034999999999997 20.404999999999998 
321 8 1 -0.01 24.744999999999997 21.035 20.404999999999998 
322 8 3 0.09 24.744999999999997 22.035 20.404999999999998 
323 8 3 0.09 24.744999999999997 20.034999999999997 20.404999999999998 
324 8 2 -0.34 26.145 21.035 20.404999999999998 
325 8 1 -0.01 27.545 21.035 20.404999999999998 
326 8 3 0.09 27.545 22.035 20.404999999999998 
327 8 3 0.09 27.545 20.034999999999997 20.404999999999998 
328 8 1 -0.01 30.345 21.035 20.404999999999998 
329 8 3 0.09 30.345 22.035 20.404999999999998 
330 8 3 0.09 30.345 20.034999999999997 20.404999999999998 
331 8 2 -0.34 31.745 21.035 20.404999999999998 
332 8 1 -0.01 33.145 21.035 20.404999999999998 
333 8 3 0.09 33.145 22.035 20.404999999999998 
334 8 3 0.09 33.145 20.034999999999997 20.404999999999998 
335 8 1 -0.01 35.945 21.035 20.404999999999998 
336 8 3 0.09 35.945 22.035 20.404999999999998 
337 8 3 0.09 35.945 20.034999999999997 20.404999999999998 
338 8 2 -0.34 37.345 21.035 20.404999999999998 
339 8 1 -0.01 38.745000000000005 21.035 20.404999999999998 
340 8 3 0.09 38.745000000000005 22.035 20.404999999999998 
341 8 3 0.09 38.745000000000005 20.034999999999997 20.404999999999998 
342 8 1 -0.01 41.545 21.035 20.404999999999998 
343 8 3 0.09 41.545 22.035 20.404999999999998 
344 8 3 0.09 41.545 20.034999999999997 20.404999999999998 
345 8 2 -0.34 42.945 21.035 20.404999999999998 
346 8 1 -0.01 44.345 21.035 20.404999999999998 
347 8 3 0.09 44.345 22.035 20.404999999999998 
348 8 3 0.09 44.345 20.034999999999997 20.404999999999998 
349 8 1 -0.01 47.145 21.035 20.404999999999998 
350 8 3 0.09 47.145 22.035 20.404999999999998 
351 8 3 0.09 47.145 20.034999999999997 20.404999999999998 
352 8 2 -0.34 48.545 21.035 20.404999999999998 
353 8 1 -0.01 49.94500000000001 21.035 20.404999999999998 
354 8 3 0.09 49.94500000000001 22.035 20.404999999999998 
355 8 3 0.09 49.94500000000001 20.034999999999997 20.404999999999998 
356 8 1 0.05 51.34500000000001 21.035 20.404999999999998 
357 8 3 0.09 51.34500000000001 22.035 20.404999999999998 
358 8 3 0.09 51.34500000000001 20.034999999999997 20.404999999999998 
359 8 4 -0.65 52.745 21.035 20.404999999999998 
360 8 5 0.42 52.745 22.035 20.404999999999998 
361 9 1 0.05 1.785 31.29 3.92 
362 9 3 0.09 1.785 30.29 3.92 
363 9 3 0.09 1.785 32.29 3.92 
364 9 4 -0.65 0.3849999999999998 31.29 3.92 
365 9 5 0.42 0.3849999999999998 30.29 3.92 
366 9 1 -0.01 3.185 31.29 3.92 
367 9 3 0.09 3.185 32.29 3.92 
368 9 3 0.09 3.185 30.29 3.92 
369 9 2 -0.34 4.585 31.29 3.92 
370 9 1 -0.01 5.985 31.29 3.92 
371 9 3 0.09 5.985 32.29 3.92 
372 9 3 0.09 5.985 30.29 3.92 
373 9 1 -0.01 8.785 31.29 3.92 
374 9 3 0.09 8.785 32.29 3.92 
375 9 3 0.09 8.785 30.29 3.92 
376 9 2 -0.34 10.184999999999999 31.29 3.92 
377 9 1 -0.01 11.585 31.29 3.92 
378 9 3 0.09 11.585 32.29 3.92 
379 9 3 0.09 11.585 30.29 3.92 
380 9 1 -0.01 14.385000000000002 31.29 3.92 
381 9 3 0.09 14.385000000000002 32.29 3.92 
382 9 3 0.09 14.385000000000002 30.29 3.92 
383 9 2 -0.34 15.785 31.29 3.92 
384 9 1 -0.01 17.185000000000002 31.29 3.92 
385 9 3 0.09 17.185000000000002 32.29 3.92 
386 9 3 0.09 17.185000000000002 30.29 3.92 
387 9 1 -0.01 19.985 31.29 3.92 
388 9 3 0.09 19.985 32.29 3.92 
389 9 3 0.09 19.985 30.29 3.92 
390 9 2 -0.34 21.385 31.29 3.92 
391 9 1 -0.01 22.785000000000004 31.29 3.92 
392 9 3 0.09 22.785000000000004 32.29 3.92 
393 9 3 0.09 22.785000000000004 30.29 3.92 
394 9 1 -0.01 25.585 31.29 3.92 
395 9 3 0.09 25.585 32.29 3.92 
396 9 3 0.09 25.585 30.29 3.92 
397 9 2 -0.34 26.985 31.29 3.92 
398 9 1 -0.01 28.385 31.29 3.92 
399 9 3 0.09 28.385 32.29 3.92 
400 9 3 0.09 28.385 30.29 3.92 
401 9 1 0.05 29.785000000000004 31.29 3.92 
402 9 3 0.09 29.785000000000004 32.29 3.92 
403 9 3 0.09 29.785000000000004 30.29 3.92 
404 9 4 -0.65 31.185000000000002 31.29 3.92 
405 9 5 0.42 31.185000000000002 32.29 3.92 
406 10 1 0.05 19.46 13.195 19.67 
407 10 3 0.09 19.46 12.195 19.67 
408 10 3 0.09 19.46 14.195000000000002 19.67 
409 10 4 -0.65 18.060000000000002 13.195 19.67 
410 10 5 0.42 18.060000000000002 12.195 19.67 
411 10 1 -0.01 20.86 13.195 19.67 
412 10 3 0.09 20.86 14.195000000000002 19.67 
413 10 3 0.09 20.86 12.195 19.67 
414 10 2 -0.34 22.259999999999998 13.195 19.67 
415 10 1 -0.01 23.66 13.195 19.67 
416 10 3 0.09 23.66 14.195000000000002 19.67 
417 10 3 0.09 23.66 12.195 19.67 
418 10 1 -0.01 26.46 13.195 19.67 
419 10 3 0.09 26.46 14.195000000000002 19.67 
420 10 3 0.09 26.46 12.195 19.67 
421 10 2 -0.34 27.86 13.195 19.67 
422 10 1 -0.01 29.26 13.195 19.67 
423 10 3 0.09 29.26 14.195000000000002 19.67 
424 10 3 0.09 29.26 12.195 19.67 
425 10 1 -0.01 32.06 13.195 19.67 
426 10 3 0.09 32.06 14.195000000000002 19.67 
427 10 3 0.09 32.06 12.195 19.67 
428 10 2 -0.34 33.46 13.195 19.67 
429 10 1 -0.01 34.86 13.195 19.67 
430 10 3 0.09 34.86 14.195000000000002 19.67 
431 10 3 0.09 34.86 12.195 19.67 
432 10 1 -0.01 37.66 13.195 19.67 
433 10 3 0.09 37.66 14.195000000000002 19.67 
434 10 3 0.09 37.66 12.195 19.67 
435 10 2 -0.34 39.06 13.195 19.67 
436 10 1 -0.01 40.46 13.195 19.67 
437 10 3 0.09 40.46 14.195000000000002 19.67 
438 10 3 0.09 40.46 12.195 19.67 
439 10 1 -0.01 43.260000000000005 13.195 19.67 
440 10 3 0.09 43.260000000000005 14.195000000000002 19.67 
441 10 3 0.09 43.260000000000005 12.195 19.67 
442 10 2 -0.34 44.660000000000004 13.195 19.67 
443 10 1 -0.01 46.06 13.195 19.67 
444 10 3 0.09 46.06 14.195000000000002 19.67 
445 10 3 0.09 46.06 12.195 19.67 
446 10 1 0.05 47.46000000000001 13.195 19.67 
447 10 3 0.09 47.46000000000001 14.195000000000002 19.67 
448 10 3 0.09 47.46000000000001 12.195 19.67 
449 10 4 -0.65 48.86 13.195 19.67 
450 10 5 0.42 48.86 14.195000000000002 19.67 
451 11 1 0.05 -2.66 33.879999999999995 14.7 
452 11 3 0.09 -2.66 32.879999999999995 14.7 
453 11 3 0.09 -2.66 34.88 14.7 
454 11 4 -0.65 -4.0600000000000005 33.879999999999995 14.7 
455 11 5 0.42 -4.0600000000000005 32.879999999999995 14.7 
456 11 1 -0.01 -1.26 33.879999999999995 14.7 
457 11 3 0.09 -1.26 34.88 14.7 
458 11 3 0.09 -1.26 32.879999999999995 14.7 
459 11 2 -0.34 0.14 33.879999999999995 14.7 
460 11 1 -0.01 1.5400000000000003 33.879999999999995 14.7 
461 11 3 0.09 1.5400000000000003 34.88 14.7 
462 11 3 0.09 1.5400000000000003 32.879999999999995 14.7 
463 11 1 -0.01 4.340000000000001 33.879999999999995 14.7 
464 11 3 0.09 4.340000000000001 34.88 14.7 
465 11 3 0.09 4.340000000000001 32.879999999999995 14.7 
466 11 2 -0.34 5.74 33.879999999999995 14.7 
467 11 1 -0.01 7.140000000000001 33.879999999999995 14.7 
468 11 3 0.09 7.140000000000001 34.88 14.7 
469 11 3 0.09 7.140000000000001 32.879999999999995 14.7 
470 11 1 -0.01 9.940000000000001 33.879999999999995 14.7 
471 11 3 0.09 9.940000000000001 34.88 14.7 
472 11 3 0.09 9.940000000000001 32.879999999999995 14.7 
473 11 2 -0.34 11.340000000000002 33.879999999999995 14.7 
474 11 1 -0.01 12.740000000000002 33.879999999999995 14.7 
475 11 3 0.09 12.740000000000002 34.88 14.7 
476 11 3 0.09 12.740000000000002 32.879999999999995 14.7 
477 11 1 -0.01 15.540000000000001 33.879999999999995 14.7 
478 11 3 0.09 15.540000000000001 34.88 14.7 
479 11 3 0.09 15.540000000000001 32.879999999999995 14.7 
480 11 2 -0.34 16.94 33.879999999999995 14.7 
481 11 1 -0.01 18.340000000000003 33.879999999999995 14.7 
482 11 3 0.09 18.340000000000003 34.88 14.7 
483 11 3 0.09 18.340000000000003 32.879999999999995 14.7 
484 11 1 -0.01 21.14 33.879999999999995 14.7 
485 11 3 0.09 21.14 34.88 14.7 
486 11 3 0.09 21.14 32.879999999999995 14.7 
487 11 2 -0.34 22.54 33.879999999999995 14.7 
488 11 1 -0.01 23.94 33.879999999999995 14.7 
489 11 3 0.09 23.94 34.88 14.7 
490 11 3 0.09 23.94 32.879999999999995 14.7 
491 11 1 0.05 25.340000000000003 33.879999999999995 14.7 
492 11 3 0.09 25.340000000000003 34.88 14.7 
493 11 3 0.09 25.340000000000003 32.879999999999995 14.7 
494 11 4 -0.65 26.74 33.879999999999995 14.7 
495 11 5 0.42 26.74 34.88 14.7 
496 12 1 0.05 27.684999999999995 19.67 30.905 
497 12 3 0.09 27.684999999999995 18.67 30.905 
498 12 3 0.09 27.684999999999995 20.67 30.905 
499 12 4 -0.65 26.284999999999997 19.67 30.905 
500 12 5 0.42 26.284999999999997 18.67 30.905 
501 12 1 -0.01 29.084999999999997 19.67 30.905 
502 12 3 0.09 29.084999999999997 20.67 30.905 
503 12 3 0.09 29.084999999999997 18.67 30.905 
504 12 2 -0.34 30.485 19.67 30.905 
505 12 1 -0.01 31.884999999999998 19.67 30.905 
506 12 3 0.09 31.884999999999998 20.67 30.905 
507 12 3 0.09 31.884999999999998 18.67 30.905 
508 12 1 -0.01 34.684999999999995 19.67 30.905 
509 12 3 0.09 34.684999999999995 20.67 30.905 
510 12 3 0.09 34.684999999999995 18.67 30.905 
511 12 2 -0.34 36.085 19.67 30.905 
512 12 1 -0.01 37.485 19.67 30.905 
513 12 3 0.09 37.485 20.67 30.905 
514 12 3 0.09 37.485 18.67 30.905 
515 12 1 -0.01 40.285000000000004 19.67 30.905 
516 12 3 0.09 40.285000000000004 20.67 30.905 
517 12 3 0.09 40.285000000000004 18.67 30.905 
518 12 2 -0.34 41.685 19.67 30.905 
519 12 1 -0.01 43.08500000000001 19.67 30.905 
520 12 3 0.09 43.08500000000001 20.67 30.905 
521 12 3 0.09 43.08500000000001 18.67 30.905 
522 12 1 -0.01 45.885 19.67 30.905 
523 12 3 0.09 45.885 20.67 30.905 
524 12 3 0.09 45.885 18.67 30.905 
525 12 2 -0.34 47.285000000000004 19.67 30.905 
526 12 1 -0.01 48.685 19.67 30.905 
527 12 3 0.09 48.685 20.67 30.905 
528 12 3 0.09 48.685 18.67 30.905 
529 12 1 -0.01 51.485 19.67 30.905 
530 12 3 0.09 51.485 20.67 30.905 
531 12 3 0.09 51.485 18.67 30.905 
532 12 2 -0.34 52.885 19.67 30.905 
533 12 1 -0.01 54.285 19.67 30.905 
534 12 3 0.09 54.285 20.67 30.905 
535 12 3 0.09 54.285 18.67 30.905 
536 12 1 0.05 55.685 19.67 30.905 
537 12 3 0.09 55.685 20.67 30.905 
538 12 3 0.09 55.685 18.67 30.905 
539 12 4 -0.65 57.085 19.67 30.905 
540 12 5 0.42 57.085 20.67 30.905 
541 13 1 0.05 0.0 25.655 5.32 
542 13 3 0.09 0.0 24.655 5.32 
543 13 3 0.09 0.0 26.655 5.32 
544 13 4 -0.65 -1.4000000000000001 25.655 5.32 
545 13 5 0.42 -1.4000000000000001 24.655 5.32 
546 13 1 -0.01 1.4000000000000001 25.655 5.32 
547 13 3 0.09 1.4000000000000001 26.655 5.32 
548 13 3 0.09 1.4000000000000001 24.655 5.32 
549 13 2 -0.34 2.8000000000000003 25.655 5.32 
550 13 1 -0.01 4.2 25.655 5.32 
551 13 3 0.09 4.2 26.655 5.32 
552 13 3 0.09 4.2 24.655 5.32 
553 13 1 -0.01 7.000000000000001 25.655 5.32 
554 13 3 0.09 7.000000000000001 26.655 5.32 
555 13 3 0.09 7.000000000000001 24.655 5.32 
556 13 2 -0.34 8.4 25.655 5.32 
557 13 1 -0.01 9.8 25.655 5.32 
558 13 3 0.09 9.8 26.655 5.32 
559 13 3 0.09 9.8 24.655 5.32 
560 13 1 -0.01 12.600000000000001 25.655 5.32 
561 13 3 0.09 12.600000000000001 26.655 5.32 
562 13 3 0.09 12.600000000000001 24.655 5.32 
563 13 2 -0.34 14.000000000000002 25.655 5.32 
564 13 1 -0.01 15.400000000000002 25.655 5.32 
565 13 3 0.09 15.400000000000002 26.655 5.32 
566 13 3 0.09 15.400000000000002 24.655 5.32 
567 13 1 -0.01 18.2 25.655 5.32 
568 13 3 0.09 18.2 26.655 5.32 
569 13 3 0.09 18.2 24.655 5.32 
570 13 2 -0.34 19.6 25.655 5.32 
571 13 1 -0.01 21.000000000000007 25.655 5.32 
572 13 3 0.09 21.000000000000007 26.655 5.32 
573 13 3 0.09 21.000000000000007 24.655 5.32 
574 13 1 -0.01 23.799999999999997 25.655 5.32 
575 13 3 0.09 23.799999999999997 26.655 5.32 
576 13 3 0.09 23.799999999999997 24.655 5.32 
577 13 2 -0.34 25.200000000000003 25.655 5.32 
578 13 1 -0.01 26.6 25.655 5.32 
579 13 3 0.09 26.6 26.655 5.32 
580 13 3 0.09 26.6 24.655 5.32 
581 13 1 0.05 28.000000000000007 25.655 5.32 
582 13 3 0.09 28.000000000000007 26.655 5.32 
583 13 3 0.09 28.000000000000007 24.655 5.32 
584 13 4 -0.65 29.400000000000006 25.655 5.32 
585 13 5 0.42 29.400000000000006 26.655 5.32 
586 14 1 0.05 26.529999999999994 25.9 34.65 
587 14 3 0.09 26.529999999999994 24.9 34.65 
588 14 3 0.09 26.529999999999994 26.9 34.65 
589 14 4 -0.65 25.13 25.9 34.65 
590 14 5 0.42 25.13 24.9 34.65 
591 14 1 -0.01 27.929999999999996 25.9 34.65 
592 14 3 0.09 27.929999999999996 26.9 34.65 
593 14 3 0.09 27.929999999999996 24.9 34.65 
594 14 2 -0.34 29.33 25.9 34.65 
595 14 1 -0.01 30.73 25.9 34.65 
596 14 3 0.09 30.73 26.9 34.65 
597 14 3 0.09 30.73 24.9 34.65 
598 14 1 -0.01 33.53 25.9 34.65 
599 14 3 0.09 33.53 26.9 34.65 
600 14 3 0.09 33.53 24.9 34.65 
601 14 2 -0.34 34.93 25.9 34.65 
602 14 1 -0.01 36.33 25.9 34.65 
603 14 3 0.09 36.33 26.9 34.65 
604 14 3 0.09 36.33 24.9 34.65 
605 14 1 -0.01 39.129999999999995 25.9 34.65 
606 14 3 0.09 39.129999999999995 26.9 34.65 
607 14 3 0.09 39.129999999999995 24.9 34.65 
608 14 2 -0.34 40.53 25.9 34.65 
609 14 1 -0.01 41.92999999999999 25.9 34.65 
610 14 3 0.09 41.92999999999999 26.9 34.65 
611 14 3 0.09 41.92999999999999 24.9 34.65 
612 14 1 -0.01 44.73 25.9 34.65 
613 14 3 0.09 44.73 26.9 34.65 
614 14 3 0.09 44.73 24.9 34.65 
615 14 2 -0.34 46.129999999999995 25.9 34.65 
616 14 1 -0.01 47.53 25.9 34.65 
617 14 3 0.09 47.53 26.9 34.65 
618 14 3 0.09 47.53 24.9 34.65 
619 14 1 -0.01 50.33 25.9 34.65 
620 14 3 0.09 50.33 26.9 34.65 
621 14 3 0.09 50.33 24.9 34.65 
622 14 2 -0.34 51.730000000000004 25.9 34.65 
623 14 1 -0.01 53.13000000000001 25.9 34.65 
624 14 3 0.09 53.13000000000001 26.9 34.65 
625 14 3 0.09 53.13000000000001 24.9 34.65 
626 14 1 0.05 54.53 25.9 34.65 
627 14 3 0.09 54.53 26.9 34.65 
628 14 3 0.09 54.53 24.9 34.65 
629 14 4 -0.65 55.93 25.9 34.65 
630 14 5 0.42 55.93 26.9 34.65 
631 15 1 0.05 20.369999999999997 15.120000000000001 0.14 
632 15 3 0.09 20.369999999999997 14.12 0.14 
633 15 3 0.09 20.369999999999997 16.12 0.14 
634 15 4 -0.65 18.970000000000002 15.120000000000001 0.14 
635 15 5 0.42 18.970000000000002 14.12 0.14 
636 15 1 -0.01 21.77 15.120000000000001 0.14 
637 15 3 0.09 21.77 16.12 0.14 
638 15 3 0.09 21.77 14.12 0.14 
639 15 2 -0.34 23.17 15.120000000000001 0.14 
640 15 1 -0.01 24.570000000000004 15.120000000000001 0.14 
641 15 3 0.09 24.570000000000004 16.12 0.14 
642 15 3 0.09 24.570000000000004 14.12 0.14 
643 15 1 -0.01 27.37 15.120000000000001 0.14 
644 15 3 0.09 27.37 16.12 0.14 
645 15 3 0.09 27.37 14.12 0.14 
646 15 2 -0.34 28.770000000000003 15.120000000000001 0.14 
647 15 1 -0.01 30.17 15.120000000000001 0.14 
648 15 3 0.09 30.17 16.12 0.14 
649 15 3 0.09 30.17 14.12 0.14 
650 15 1 -0.01 32.97 15.120000000000001 0.14 
651 15 3 0.09 32.97 16.12 0.14 
652 15 3 0.09 32.97 14.12 0.14 
653 15 2 -0.34 34.370000000000005 15.120000000000001 0.14 
654 15 1 -0.01 35.77 15.120000000000001 0.14 
655 15 3 0.09 35.77 16.12 0.14 
656 15 3 0.09 35.77 14.12 0.14 
657 15 1 -0.01 38.57 15.120000000000001 0.14 
658 15 3 0.09 38.57 16.12 0.14 
659 15 3 0.09 38.57 14.12 0.14 
660 15 2 -0.34 39.970000000000006 15.120000000000001 0.14 
661 15 1 -0.01 41.370000000000005 15.120000000000001 0.14 
662 15 3 0.09 41.370000000000005 16.12 0.14 
663 15 3 0.09 41.370000000000005 14.12 0.14 
664 15 1 -0.01 44.17 15.120000000000001 0.14 
665 15 3 0.09 44.17 16.12 0.14 
666 15 3 0.09 44.17 14.12 0.14 
667 15 2 -0.34 45.57000000000001 15.120000000000001 0.14 
668 15 1 -0.01 46.97000000000001 15.120000000000001 0.14 
669 15 3 0.09 46.97000000000001 16.12 0.14 
670 15 3 0.09 46.97000000000001 14.12 0.14 
671 15 1 0.05 48.370000000000005 15.120000000000001 0.14 
672 15 3 0.09 48.370000000000005 16.12 0.14 
673 15 3 0.09 48.370000000000005 14.12 0.14 
674 15 4 -0.65 49.77 15.120000000000001 0.14 
675 15 5 0.42 49.77 16.12 0.14 
676 16 1 0.05 26.425 14.945 26.6 
677 16 3 0.09 26.425 13.944999999999999 26.6 
678 16 3 0.09 26.425 15.945 26.6 
679 16 4 -0.65 25.025 14.945 26.6 
680 16 5 0.42 25.025 13.944999999999999 26.6 