ITEM: TIMESTEP
10000000
ITEM: NUMBER OF ATOMS
2610
ITEM: BOX BOUNDS pp pp pp
-1.4391884350598822e+01 1.4391884350598822e+01
-1.4391884350598822e+01 1.4391884350598822e+01
-1.4391884350598822e+01 1.4391884350598822e+01
ITEM: ATOMS id type xs ys zs
2385 7 0.397126 0.273388 0.154201
1881 7 0.315603 0.0857228 0.0796692
2380 6 0.033736 0.351861 0.495962
1520 7 0.392113 0.355077 0.203465
660 2 0.153527 0.175029 0.151892
2133 7 0.0414306 0.00900127 0.42075
215 3 0.334202 0.155702 0.0723595
157 3 0.210356 0.098334 0.430314
2537 7 0.437273 0.462298 0.0294004
217 2 0.398073 0.163398 0.0709634
1671 7 0.406071 0.00433822 0.283054
659 3 0.10885 0.199136 0.0995671
153 3 0.281724 0.110011 0.456223
2485 6 0.370665 0.053553 0.295387
794 3 0.180691 0.436935 0.0643473
654 1 0.0798654 0.187729 0.169112
2543 7 0.386137 0.298016 0.464402
2386 6 0.494094 0.220135 0.476144
1498 6 0.224889 0.316996 0.145628
1052 1 0.456061 0.102206 0.361286
1629 7 0.449073 0.400389 0.337547
211 1 0.346937 0.222335 0.0972202
1985 7 0.167372 0.458515 0.299911
2238 7 0.0514532 0.262935 0.0290765
1880 7 0.293881 0.076384 0.126651
1926 7 0.328893 0.160024 0.40987
2285 7 0.0626933 0.458867 0.399111
1947 7 0.204096 0.216357 0.378008
2197 6 0.16853 0.0250787 0.150561
544 4 0.287423 0.368097 0.436084
1363 6 0.362431 0.178379 0.460852
1685 7 0.00393939 0.091448 0.405441
1500 7 0.198012 0.330206 0.160085
1882 6 0.411055 0.0991849 0.215213
212 3 0.339244 0.225625 0.133446
631 1 0.176605 0.0227221 0.287639
2269 6 0.451747 0.338783 0.377587
653 2 0.0847384 0.208551 0.203138
637 3 0.186577 0.0613027 0.351929
2086 6 0.299728 0.293878 0.200622
2245 6 0.183676 0.378577 0.396366
2198 7 0.156171 0.0489577 0.17013
209 3 0.336496 0.298297 0.119926
158 2 0.190575 0.0757579 0.486617
646 2 0.0803206 0.141651 0.275
2204 7 0.11191 0.416727 0.463604
2574 7 0.455723 0.300902 0.308847
1691 7 0.0479806 0.37817 0.166323
201 3 0.474794 0.340452 0.0663344
155 1 0.218861 0.0737336 0.458234
617 3 0.0322117 0.0816106 0.141009
225 5 0.440916 0.189894 0.0366116
658 3 0.13597 0.234304 0.143045
793 3 0.192249 0.472411 0.115637
204 1 0.398653 0.324058 0.0910497
1628 7 0.454522 0.452657 0.339694
2377 6 0.324235 0.0628868 0.179859
647 1 0.0712325 0.180831 0.279307
636 1 0.156664 0.0568977 0.325939
2506 6 0.138572 0.110199 0.00508718
2590 6 0.105161 0.378115 0.0174051
655 3 0.046519 0.194808 0.148786
2573 7 0.439788 0.258057 0.282835
649 3 0.102525 0.201096 0.288372
673 3 0.225373 0.218261 0.293447
772 3 0.052535 0.369191 0.260994
2462 7 0.119111 0.287966 0.386275
2487 7 0.370572 0.0738216 0.321751
1394 7 0.0198965 0.326906 0.0577137
1884 7 0.399499 0.0888112 0.244619
2470 6 0.299439 0.381309 0.140089
651 3 0.0177868 0.206001 0.228001
1436 7 0.17378 0.369026 0.0100454
669 3 0.251471 0.145348 0.249347
2284 6 0.0531519 0.485932 0.382309
2029 6 0.364442 0.328527 0.306436
1501 6 0.342109 0.212038 0.295507
1675 6 0.212431 0.436705 0.208997
2544 7 0.358044 0.329618 0.495681
1219 4 0.168038 0.445656 0.497842
2206 6 0.347074 0.419563 0.291413
1572 7 0.371845 0.0434361 0.0237036
542 3 0.287786 0.381862 0.375718
642 3 0.119967 0.107491 0.37324
2059 6 0.00203563 0.150822 0.491453
1054 3 0.418237 0.111781 0.368481
638 3 0.128662 0.0336097 0.340089
1681 6 0.193774 0.291461 0.0581361
2096 7 0.292325 0.48946 0.210057
1056 3 0.468376 0.172621 0.369884
1519 6 0.37972 0.385718 0.199801
2344 6 0.118525 0.0147116 0.0510485
1048 1 0.445925 0.0405634 0.394829
2203 6 0.094472 0.404669 0.437984
1741 6 0.333266 0.0563087 0.402451
1452 7 0.29947 0.423206 0.0228582
621 3 0.0140187 0.103739 0.0617304
1664 7 0.0360042 0.252831 0.446535
786 3 0.0483098 0.466925 0.0523469
1742 7 0.316172 0.0835084 0.393857
1651 6 0.118347 0.212271 0.466429
788 2 0.0911748 0.443728 0.082491
667 2 0.220812 0.164989 0.197878
1945 6 0.227809 0.209532 0.400302
1663 6 0.01337 0.26004 0.469807
2259 7 0.431615 0.4066 0.151273
650 1 0.0567527 0.206351 0.232283
1395 7 0.0717385 0.331188 0.049944
1676 7 0.234218 0.42915 0.232958
545 5 0.305652 0.382331 0.461222
2572 6 0.450686 0.289125 0.278158
2131 6 0.0177467 0.0279472 0.407111
2258 7 0.479665 0.416312 0.132213
1435 6 0.206512 0.37315 0.00586664
2379 7 0.3099 0.0696624 0.209091
2182 6 0.420353 0.261018 0.418206
2095 6 0.305651 0.479727 0.181185
2423 7 0.170885 0.275174 0.277728
200 1 0.46712 0.307131 0.0857161
2381 7 0.0545107 0.363894 0.472951
2205 7 0.116547 0.402368 0.41322
2006 7 0.268773 0.0218447 0.265582
1522 6 0.487054 0.0290656 0.216838
1692 7 0.0679216 0.345666 0.1301
2183 7 0.445354 0.244551 0.432686
2031 7 0.356143 0.360099 0.300096
2472 7 0.27297 0.361442 0.143341
664 1 0.229632 0.17896 0.158075
790 3 0.112157 0.464636 0.142944
774 2 0.0394227 0.416257 0.231636
2418 7 0.396372 0.0208569 0.0884525
552 3 0.42334 0.379426 0.468574
195 3 0.459831 0.325589 0.187203
1442 7 0.153457 0.115622 0.189686
1879 6 0.287288 0.0893207 0.0967331
1450 6 0.275102 0.430577 0.0442533
2299 6 0.27622 0.284147 0.306791
208 3 0.337746 0.305217 0.0591181
2461 6 0.140853 0.294894 0.410466
2310 7 0.313284 0.489838 0.070776
1859 7 0.481514 0.0197476 0.0919136
1682 7 0.177674 0.271033 0.0374155
1683 7 0.206975 0.314701 0.0383483
1393 6 0.0490742 0.314218 0.067386
2087 7 0.278591 0.310461 0.181024
1502 7 0.346509 0.209158 0.328344
1690 6 0.0645341 0.349525 0.162956
543 3 0.32186 0.330043 0.394899
1986 7 0.186541 0.428579 0.338676
1050 3 0.416404 0.0210475 0.37839
657 1 0.122102 0.19873 0.137047
203 2 0.431856 0.306053 0.108487
546 1 0.35306 0.397051 0.41003
548 3 0.377443 0.38676 0.382258
1883 7 0.435406 0.0777842 0.207804
782 1 0.0141092 0.458479 0.116732
193 1 0.498253 0.321024 0.187927
2300 7 0.298561 0.260737 0.299126
1858 6 0.498275 0.0416145 0.0732909
769 4 0.0983945 0.464399 0.286047
2539 6 0.24269 0.286148 0.456547
2271 7 0.483956 0.330684 0.379285
663 3 0.191243 0.19305 0.0942298
220 3 0.431505 0.121337 0.110583
771 1 0.0472458 0.406309 0.270131
2592 7 0.106722 0.407788 0.0323369
2589 7 0.198739 0.117609 0.0240416
547 3 0.342163 0.435053 0.402095
634 4 0.206224 0.0395685 0.265104
1221 1 0.234723 0.487276 0.49364
662 3 0.190514 0.134662 0.116093
666 3 0.259952 0.15971 0.140825
160 3 0.143253 0.110922 0.4518
541 1 0.311465 0.366059 0.403297
661 1 0.186399 0.172191 0.126787
611 3 0.00541068 0.0874767 0.245054
640 1 0.126898 0.117608 0.335953
2538 7 0.444233 0.421845 0.0622847
781 2 0.021688 0.442523 0.152842
2247 7 0.169872 0.348604 0.392248
648 3 0.0424483 0.189312 0.302272
1570 6 0.371681 0.0688265 0.0451788
1443 7 0.120798 0.10661 0.229916
2424 7 0.183541 0.320083 0.302004
670 3 0.272782 0.204373 0.22317
2463 7 0.14148 0.267442 0.429225
2542 6 0.359532 0.298389 0.484349
671 1 0.209082 0.196806 0.264709
1441 6 0.143241 0.0917107 0.210417
1496 7 0.415704 0.207801 0.226897
2411 7 0.0112174 0.29941 0.183617
2207 7 0.375286 0.423663 0.308535
668 1 0.243906 0.1775 0.229225
1365 7 0.339706 0.195294 0.478268
645 3 0.0502955 0.127649 0.335
2541 7 0.21314 0.301317 0.458152
773 3 0.0206456 0.404269 0.298696
1216 1 0.1851 0.476321 0.474723
1445 7 0.263292 0.467991 0.339582
641 3 0.145029 0.152012 0.336997
2540 7 0.263966 0.310225 0.447973
1497 7 0.426094 0.159449 0.244796
2270 7 0.436326 0.315462 0.395593
789 1 0.12191 0.447273 0.110226
2384 7 0.364919 0.271699 0.195748
1624 6 0.0621493 0.209901 0.387843
2286 7 0.044311 0.474472 0.352369
161 3 0.14279 0.0432525 0.458838
2471 7 0.295041 0.396321 0.110743
2208 7 0.356888 0.416467 0.25979
2030 7 0.394519 0.324898 0.29272
216 3 0.360584 0.157491 0.12774
159 1 0.151122 0.0787198 0.475238
656 3 0.0800258 0.150063 0.175371
1051 2 0.469652 0.0678054 0.375634
219 3 0.432334 0.18196 0.122519
191 3 0.488686 0.377268 0.235411
1403 7 0.0360352 0.285005 0.317474
1677 7 0.191599 0.410796 0.208197
2222 7 0.119481 0.342347 0.186556
1499 7 0.214567 0.308253 0.115249
2422 6 0.157682 0.303347 0.289468
1503 7 0.371433 0.203456 0.282381
1626 7 0.0460983 0.23382 0.371227
2199 7 0.14629 0.0220686 0.126021
2383 6 0.395326 0.262774 0.185665
206 3 0.402354 0.33436 0.054928
770 5 0.0912462 0.473704 0.255228
550 1 0.400792 0.410118 0.459045
674 4 0.183906 0.220415 0.247825
1984 6 0.195661 0.45063 0.315514
198 3 0.49661 0.261675 0.13717
2587 6 0.231287 0.124409 0.0234898
207 1 0.356967 0.288515 0.0880128
2221 6 0.148936 0.347188 0.201215
1924 6 0.307734 0.147119 0.387698
2301 7 0.293475 0.312573 0.30644
1523 7 0.460522 0.0127246 0.228452
643 1 0.0793743 0.122428 0.309301
652 3 0.0626998 0.244287 0.244395
2135 7 0.186374 0.496109 0.193575
1521 7 0.352087 0.381437 0.181802
551 3 0.423238 0.426509 0.432642
635 5 0.189933 0.0633145 0.246138
1652 7 0.105723 0.209404 0.497061
1055 1 0.489366 0.139948 0.376736
2236 6 0.0660961 0.240963 0.00886065
218 1 0.430392 0.156622 0.0938842
672 3 0.189887 0.165355 0.276241
2588 7 0.242401 0.114397 0.0531903
549 2 0.364377 0.392872 0.450701
152 1 0.262635 0.0905468 0.484254
138 3 0.467759 0.0556804 0.490474
675 5 0.167149 0.204641 0.223027
2246 7 0.211675 0.372608 0.413286
1946 7 0.235304 0.238993 0.413785
2184 7 0.393908 0.241266 0.422255
665 3 0.235463 0.217114 0.149559
1404 7 0.0853605 0.299744 0.3067
639 2 0.150776 0.0940025 0.311383
2536 6 0.442837 0.429517 0.0299571
1571 7 0.385329 0.0940604 0.0283599
1402 6 0.0660575 0.288512 0.33134
1743 7 0.334812 0.0575738 0.435646
1218 3 0.184875 0.462562 0.437901
1899 7 0.464883 0.480468 0.15763
202 3 0.464904 0.275287 0.0610919
2252 7 0.355556 0.252063 0.0177192
1625 7 0.0383729 0.188262 0.396347
1446 7 0.314396 0.455568 0.338945
1057 3 0.487345 0.135305 0.414821
156 3 0.225813 0.0371569 0.446726
1653 7 0.102565 0.188984 0.448694
1925 7 0.282605 0.168868 0.386514
1053 3 0.453536 0.0927793 0.323602
2088 7 0.281699 0.28579 0.22737
1049 3 0.42938 0.0563822 0.42772
2257 6 0.448034 0.42637 0.130166
224 4 0.472727 0.181354 0.036632
785 1 0.0601238 0.469484 0.0882448
2223 7 0.14799 0.328007 0.228364
210 2 0.371469 0.250828 0.0825671
2378 7 0.356759 0.0671374 0.185337
768 3 0.126603 0.412981 0.269154
221 1 0.476583 0.154558 0.0647907
2486 7 0.341318 0.0379725 0.296745
1451 7 0.248424 0.414737 0.0322843
644 3 0.0696381 0.087303 0.294818
214 1 0.364806 0.171263 0.0936265
766 1 0.0955637 0.424928 0.286646
1838 7 0.387118 0.425119 0.00417719
1627 6 0.434855 0.428743 0.32756
767 3 0.0983836 0.413358 0.322668
2097 7 0.296357 0.447956 0.178002
1222 3 0.261383 0.465965 0.473106
791 3 0.132066 0.41028 0.118684
792 1 0.166651 0.465881 0.0858523
1364 7 0.387151 0.17298 0.482431
1665 7 0.0232526 0.289237 0.482288
222 3 0.482111 0.123164 0.0481437
1495 6 0.423617 0.191139 0.254567
213 3 0.314157 0.220676 0.0770907
632 3 0.143909 0.0126101 0.266797
2489 7 0.490792 0.174907 0.259909
2201 7 0.00460572 0.400033 0.420756
205 3 0.390302 0.353764 0.111281
2508 7 0.128135 0.0854843 0.0247376
628 3 0.00207514 0.241167 0.112349
2005 6 0.297437 0.00523039 0.268456
1444 6 0.292152 0.474597 0.354725
795 2 0.156529 0.495447 0.0597217
2012 7 0.461268 0.164354 0.49461
1632 7 0.353875 0.499757 0.413918
165 2 0.115113 0.0497684 0.534381
2307 7 0.346959 0.423803 0.685883
560 1 0.369488 0.355057 0.587443
249 1 0.173939 0.452606 0.821692
353 1 0.22622 0.159706 0.720104
1818 7 0.469373 0.139075 0.979843
171 3 0.0915612 0.00110376 0.627715
333 3 0.153268 0.376295 0.647263
2076 7 0.070921 0.368085 0.804984
676 1 0.0238273 0.0119158 0.704035
574 1 0.33476 0.290843 0.735544
572 3 0.264791 0.295534 0.711972
1226 3 0.302191 0.496429 0.532781
1903 6 0.0597644 0.150334 0.986502
2013 7 0.451224 0.129367 0.532575
1220 5 0.179417 0.451379 0.529912
137 3 0.487416 0.0106294 0.532005
168 3 0.0747949 0.0801508 0.577169
2317 6 0.151391 0.495388 0.673044
141 1 0.411724 0.0216235 0.531002
1817 7 0.45384 0.123185 0.932172
1802 7 0.38494 0.213102 0.622742
254 3 0.220695 0.413635 0.866492
334 3 0.110177 0.393799 0.611602
351 3 0.17246 0.116742 0.676626
1593 7 0.155451 0.0551751 0.890238
1229 3 0.299668 0.460786 0.62329
807 3 0.0998798 0.479602 0.913978
1716 7 0.0445056 0.315371 0.608773
1584 7 0.423315 0.293083 0.973345
1777 6 0.0589123 0.11956 0.669469
321 1 0.0603579 0.24773 0.718836
341 3 0.2193 0.272978 0.589035
74 3 0.431703 0.377595 0.74362
1786 6 0.399136 0.44093 0.668037
72 1 0.455218 0.348476 0.753828
358 3 0.201572 0.167797 0.79037
2450 7 0.376629 0.117685 0.744081
1592 7 0.179248 0.0129193 0.86988
343 3 0.125603 0.225851 0.574474
151 2 0.284287 0.0626708 0.5036
582 3 0.290849 0.392957 0.779253
1932 7 0.0460697 0.196514 0.921139
344 3 0.180165 0.203309 0.549123
992 3 0.370696 0.496031 0.761251
139 4 0.470151 0.0667777 0.550033
2431 6 0.336215 0.0148558 0.756504
585 5 0.3556 0.407182 0.762063
1752 7 0.0979278 0.476843 0.689044
1715 7 0.0309836 0.33156 0.560593
346 1 0.159526 0.174929 0.627242
2146 6 0.0188131 0.398738 0.782564
1778 7 0.0416694 0.0911964 0.667446
2522 7 0.204451 0.0250455 0.773025
339 1 0.180804 0.273068 0.575871
1988 7 0.384352 0.0186885 0.658287
1391 7 0.16953 0.273548 0.853352
1413 7 0.250773 0.422098 0.698403
1377 7 0.203625 0.318893 0.784679
167 3 0.130625 0.0595988 0.59995
357 3 0.262881 0.179272 0.784615
1931 7 0.0552016 0.233328 0.884702
248 2 0.150272 0.484019 0.825978
2391 7 0.119536 0.0651561 0.730445
257 3 0.280424 0.435969 0.890347
1801 6 0.377895 0.197184 0.651077
1230 3 0.23763 0.467025 0.619328
566 3 0.283651 0.321992 0.563618
352 2 0.19485 0.172015 0.697156
69 1 0.480323 0.364709 0.798332
354 3 0.219756 0.121257 0.730935
326 3 0.0189306 0.303953 0.687073
583 3 0.308818 0.383079 0.838758
2011 6 0.438596 0.156203 0.517532
1837 6 0.355655 0.431036 0.995177
1656 7 0.368115 0.150167 0.856121
2253 7 0.340946 0.23095 0.971816
146 3 0.331519 0.00770607 0.525105
2325 7 0.0214484 0.450059 0.543788
79 1 0.479306 0.290723 0.662856
2451 7 0.36836 0.0668742 0.754862
2318 7 0.177779 0.475203 0.671585
578 1 0.335084 0.329615 0.789937
154 3 0.250224 0.11883 0.506952
169 1 0.078729 0.00785689 0.590894
2449 6 0.391356 0.0908023 0.756978
255 2 0.231678 0.477047 0.868737
2251 6 0.359117 0.255568 0.984842
336 3 0.115217 0.324475 0.557753
1224 2 0.234636 0.48246 0.532715
331 2 0.0937609 0.337493 0.645375
1225 1 0.272828 0.47636 0.549743
1655 7 0.347233 0.183207 0.820929
2507 7 0.110734 0.125981 0.99604
2577 7 0.131547 0.143114 0.874873
166 1 0.102871 0.0533021 0.574239
2033 7 0.279127 0.0541803 0.943287
1375 6 0.195234 0.338052 0.758826
1788 7 0.430308 0.445086 0.678851
2101 6 0.464937 0.395645 0.945794
1803 7 0.345888 0.188661 0.648115
252 1 0.203129 0.4491 0.867
345 2 0.179509 0.205762 0.612072
1412 7 0.207181 0.403742 0.721405
1704 7 0.345997 0.29436 0.922141
584 4 0.351332 0.406686 0.794985
1927 6 0.371192 0.124703 0.962052
148 1 0.310512 0.0767033 0.529324
80 3 0.46196 0.293356 0.628036
1582 6 0.452244 0.307001 0.964669
1918 6 0.189012 0.278379 0.687056
1400 7 0.175362 0.0159139 0.688042
342 1 0.164281 0.221843 0.578689
563 2 0.332047 0.353428 0.574517
78 3 0.423058 0.33375 0.682222
332 1 0.123656 0.359629 0.627306
2066 7 0.0704648 0.0869168 0.857296
2060 7 0.0187708 0.141834 0.518748
1791 7 0.258274 0.196605 0.637417
2103 7 0.453338 0.36448 0.945569
2557 6 0.0457484 0.168926 0.579265
329 3 0.0569216 0.384106 0.676176
679 4 0.00424602 0.0400693 0.68674
317 3 0.106081 0.188037 0.724554
1434 7 0.27826 0.192223 0.930678
1390 6 0.199841 0.281979 0.842579
1568 7 0.395711 0.0890715 0.609034
1702 6 0.327169 0.316648 0.906184
327 3 0.0436345 0.328576 0.739392
2210 7 0.494798 0.182607 0.925715
2306 7 0.320603 0.379104 0.694469
557 1 0.388934 0.403169 0.569574
340 3 0.188511 0.279126 0.539613
77 3 0.476251 0.365615 0.672297
568 3 0.275845 0.367798 0.643346
1839 7 0.356386 0.431209 0.96193
1569 7 0.415582 0.114884 0.650327
1729 6 0.498566 0.44759 0.699653
569 3 0.252315 0.3099 0.636589
2118 7 0.412241 0.0894919 0.826942
554 3 0.436772 0.445959 0.516354
1724 7 0.219438 0.308756 0.896383
1536 7 0.252193 0.095084 0.868233
2523 7 0.240703 0.0584263 0.791404
1920 7 0.181197 0.246191 0.684091
1750 6 0.065107 0.47153 0.688367
1745 7 0.448965 0.11039 0.710794
2491 6 0.0138283 0.125058 0.765295
360 5 0.192266 0.227412 0.758434
2117 7 0.435816 0.0791682 0.87281
250 3 0.152758 0.41854 0.821173
337 3 0.16995 0.356728 0.570473
256 1 0.261625 0.470264 0.897832
348 3 0.14249 0.15041 0.599853
73 3 0.433346 0.322791 0.770404
71 3 0.45233 0.370526 0.825063
1703 7 0.342691 0.345658 0.911014
140 5 0.481512 0.0537977 0.579659
678 3 0.0502434 0.0289124 0.727232
2559 7 0.0521028 0.153527 0.608047
1427 7 0.406937 0.406198 0.906165
1392 7 0.212079 0.254013 0.829388
1591 6 0.175177 0.0455959 0.865238
350 3 0.221373 0.134455 0.642524
2147 7 0.0137129 0.426158 0.764453
1485 7 0.215997 0.168663 0.976229
1789 6 0.286486 0.190245 0.621
1919 7 0.178104 0.292238 0.658864
330 3 0.110825 0.364168 0.702646
2389 6 0.128638 0.0458023 0.75591
2224 6 0.387653 0.227598 0.558266
1940 7 0.154663 0.300097 0.950652
2254 6 0.474118 0.299502 0.543444
355 3 0.261978 0.157692 0.705084
577 2 0.344173 0.3267 0.750599
1484 7 0.190167 0.17739 0.931251
324 2 0.0786716 0.284475 0.711699
1723 6 0.229336 0.325756 0.923195
2591 7 0.0992348 0.385163 0.985451
1746 7 0.497666 0.129994 0.713986
1537 6 0.105457 0.267209 0.866683
136 1 0.462579 0.0392485 0.523922
558 3 0.426402 0.403296 0.580375
335 1 0.1449 0.331104 0.585734
2032 6 0.287139 0.0859783 0.948818
1967 7 0.102178 0.0102649 0.942098
1432 6 0.310397 0.200665 0.929314
564 1 0.311262 0.323606 0.590163
338 2 0.167099 0.301006 0.600425
2262 7 0.372564 0.18636 0.713305
2225 7 0.387862 0.258989 0.547292
1913 7 0.0163876 0.00772848 0.870236
2075 7 0.120692 0.35699 0.792099
2457 7 0.31505 0.239321 0.534877
561 3 0.397714 0.329756 0.580617
2433 7 0.306331 0.0206906 0.769874
565 3 0.323151 0.286873 0.590008
1888 6 0.453093 0.194369 0.785287
1928 7 0.346939 0.104755 0.951108
2374 6 0.0992739 0.35901 0.918331
575 3 0.369629 0.277951 0.721574
2261 7 0.403186 0.189457 0.755954
1433 7 0.321103 0.188088 0.900451
1534 6 0.261177 0.0990683 0.836464
562 3 0.370599 0.358306 0.626158
1930 6 0.0326634 0.210832 0.894284
1939 6 0.148374 0.269921 0.963131
1890 7 0.473759 0.218751 0.776104
2148 7 0.0146688 0.408644 0.814037
2130 7 0.430089 0.00527773 0.880096
251 3 0.202389 0.45712 0.795206
359 4 0.223952 0.224072 0.765537
556 2 0.381047 0.404172 0.529281
2375 7 0.0974945 0.363045 0.88537
1227 3 0.284809 0.440659 0.543801
356 1 0.229181 0.183408 0.769195
1654 6 0.33937 0.164236 0.847085
1714 6 0.0260935 0.306933 0.582398
559 3 0.36875 0.42769 0.591427
322 3 0.0278871 0.247483 0.743632
2034 7 0.269643 0.0944099 0.975813
2116 6 0.428969 0.103986 0.85176
316 1 0.0916877 0.216836 0.747895
581 1 0.318921 0.381462 0.801895
1725 7 0.25958 0.313719 0.930003
555 3 0.374824 0.463242 0.506805
2439 7 0.283794 0.00826478 0.872142
570 2 0.311034 0.327315 0.671823
170 3 0.0407299 0.0123794 0.592702
1835 7 0.20747 0.016265 0.515133
1411 6 0.218388 0.428561 0.702318
1539 7 0.114145 0.243613 0.84492
2305 6 0.319096 0.411925 0.69961
320 5 0.120647 0.264316 0.742086
145 1 0.345613 0.0392326 0.544155
1583 7 0.473147 0.28136 0.961278
2576 7 0.18273 0.13345 0.86758
1929 7 0.356096 0.153753 0.967892
1905 7 0.0620709 0.181394 0.998157
2456 7 0.268929 0.244041 0.510039
1426 6 0.375019 0.405126 0.896892
1958 7 0.0673297 0.497894 0.516222
1344 3 0.496043 0.495885 0.955352
2226 7 0.414155 0.213565 0.543892
1535 7 0.289482 0.116462 0.837922
2108 7 0.0327921 0.412731 0.896426
579 3 0.366411 0.324036 0.80985
1483 6 0.2134 0.190385 0.951183
1428 7 0.375881 0.407578 0.863739
2065 6 0.08103 0.0913916 0.826083
1228 1 0.272946 0.481432 0.603439
2107 6 0.0122541 0.425649 0.873684
76 1 0.462662 0.334057 0.689457
2074 6 0.0983119 0.35306 0.81638
1790 7 0.280937 0.201512 0.590208
2575 6 0.161505 0.157464 0.876451
347 3 0.134522 0.190889 0.650629
1968 7 0.103666 0.0595 0.960537
1779 7 0.0471371 0.13455 0.696718
1608 7 0.490601 0.0960307 0.836128
573 3 0.304984 0.262341 0.675062
349 1 0.190558 0.146922 0.663235
164 3 0.0860827 0.0948578 0.502277
2376 7 0.0980204 0.326077 0.922779
1816 6 0.480191 0.123629 0.952452
571 1 0.300132 0.295232 0.69704
2387 7 0.485549 0.23808 0.502805
1376 7 0.195132 0.317356 0.732797
580 3 0.306124 0.312426 0.808266
1567 6 0.395262 0.0898209 0.642277
1941 7 0.178027 0.254892 0.963952
149 3 0.334777 0.100212 0.510142
323 3 0.0505583 0.230571 0.686175
567 1 0.286115 0.331689 0.637934
328 1 0.0819672 0.352238 0.679849
576 3 0.31978 0.2594 0.754758
2129 7 0.424934 0.0186331 0.930706
1744 6 0.477938 0.11162 0.694517
253 3 0.178589 0.451123 0.898324
325 1 0.0529987 0.314104 0.702843
2067 7 0.0552579 0.105491 0.810498
2237 7 0.092792 0.25694 0.997116
147 3 0.343853 0.029213 0.581659
2558 7 0.0236091 0.192466 0.587115
1437 7 0.212121 0.36398 0.974397
2102 7 0.460244 0.406063 0.977025
2260 6 0.371563 0.185335 0.746529
245 1 0.127149 0.491442 0.793599
1904 7 0.027971 0.14192 0.991427
1889 7 0.472936 0.171098 0.798349
260 3 0.338473 0.489066 0.889016
246 3 0.100757 0.465338 0.782916
319 4 0.119508 0.239603 0.765007
1538 7 0.101603 0.294586 0.848202
1787 7 0.388456 0.471706 0.661355
318 3 0.0684408 0.199925 0.774574
1966 6 0.0991331 0.0419967 0.932627
809 4 0.0882883 0.498683 0.971756
2128 6 0.445725 0.0210283 0.904862
2390 7 0.108736 0.0550103 0.78091
81 3 0.460536 0.257635 0.673367
150 3 0.299312 0.0922388 0.563229
163 3 0.135895 0.116478 0.531007
2382 7 0.0221531 0.378803 0.511642
2455 6 0.287291 0.22254 0.527543
162 1 0.121813 0.0851758 0.515388
75 2 0.479095 0.335461 0.724668
144 2 0.383403 0.0501428 0.528321
553 1 0.400747 0.433603 0.508663
2521 6 0.236748 0.032644 0.770776
258 3 0.247141 0.470589 0.935547
2255 7 0.478892 0.328303 0.527519
993 3 0.429306 0.471686 0.758658
1418 7 0.497923 0.0650649 0.649765
2121 7 0.344356 0.00732283 0.951508
2323 6 0.00593108 0.421333 0.550106
142 3 0.411207 0.00154884 0.566564
1658 7 0.352832 0.634742 0.0751577
2234 7 0.383409 0.983542 0.155969
537 3 0.420176 0.805242 0.222208
1734 7 0.0938402 0.579731 0.438851
2550 7 0.120088 0.827236 0.279277
1544 7 0.498018 0.589496 0.0343074
1558 6 0.20524 0.798794 0.21724
1810 6 0.386204 0.698953 0.305159
423 3 0.0273863 0.571466 0.311125
2155 6 0.36414 0.722349 0.0221801
413 3 0.217073 0.63479 0.31717
2316 7 0.237644 0.629539 0.434653
1371 7 0.457665 0.666788 0.193779
1204 1 0.410798 0.750457 0.44386
415 1 0.154424 0.591404 0.334248
1667 7 0.0222011 0.85166 0.0349663
2016 7 0.0150077 0.888002 0.187467
1666 6 0.0356092 0.868206 0.0605066
1794 7 0.19118 0.860185 0.367336
425 1 0.0356513 0.611885 0.249394
1559 7 0.172935 0.792769 0.222335
2303 7 0.469567 0.900213 0.331971
447 3 0.0949404 0.817619 0.436449
424 3 0.0635889 0.546719 0.263171
2395 6 0.0478841 0.683741 0.367523
796 1 0.187359 0.520368 0.0508615
2417 7 0.419973 0.973936 0.085667
2494 6 0.161556 0.725676 0.465284
2071 6 0.103864 0.920817 0.401801
412 3 0.197806 0.665833 0.364866
2304 7 0.430314 0.928607 0.311494
1707 7 0.0960713 0.606286 0.103733
2099 7 0.33589 0.872047 0.151376
529 1 0.491988 0.920049 0.173671
1796 7 0.0997323 0.905115 0.300351
1760 7 0.41046 0.706851 0.147345
1367 7 0.385056 0.833227 0.482045
2027 7 0.312458 0.99863 0.373694
1575 7 0.468031 0.617195 0.147645
1875 7 0.334883 0.821138 0.366028
1898 7 0.470998 0.532697 0.158669
1761 7 0.410801 0.665984 0.114238
2529 7 0.256934 0.825972 0.244454
2396 7 0.0275291 0.702529 0.349123
1047 3 0.490847 0.981984 0.373177
1366 6 0.393835 0.862258 0.495684
530 3 0.463674 0.939633 0.161006
418 1 0.103939 0.574532 0.332144
1045 1 0.481651 0.999419 0.406109
535 3 0.465652 0.87524 0.234509
1205 3 0.375079 0.760416 0.428673
2212 6 0.103433 0.776343 0.234582
1631 7 0.395282 0.517979 0.440746
1855 6 0.382686 0.525501 0.211934
799 1 0.181059 0.545819 0.00392622
2227 6 0.375245 0.924586 0.411053
2510 7 0.404167 0.6193 0.435587
1208 1 0.44746 0.793663 0.406783
1209 3 0.461749 0.770812 0.378954
428 2 0.0138818 0.640556 0.267817
2416 6 0.412766 0.998532 0.106857
1361 7 0.395758 0.638035 0.205827
1906 6 0.20502 0.7695 0.391572
538 3 0.435919 0.801288 0.162
2170 6 0.0436571 0.742993 0.0824164
2157 7 0.394087 0.728339 0.00902082
2100 7 0.331538 0.916294 0.179474
1212 3 0.471642 0.858567 0.433793
450 5 0.0690534 0.738664 0.397031
787 3 0.0681471 0.507589 0.0883641
1360 6 0.372704 0.617922 0.192794
2177 7 0.446436 0.728158 0.289115
2073 7 0.127125 0.89762 0.396634
2014 6 0.0129686 0.872831 0.157944
2315 7 0.283697 0.608817 0.449352
430 3 0.0238046 0.690128 0.220249
1767 7 0.230346 0.701411 0.485065
1754 7 0.256666 0.750572 0.363187
442 2 0.0203617 0.779538 0.367473
2345 7 0.0902526 0.998203 0.056884
2346 7 0.140679 0.990998 0.0437871
1727 7 0.337746 0.636003 0.394095
1670 7 0.39592 0.968435 0.245984
1358 7 0.471501 0.509335 0.405371
1455 7 0.0388726 0.963157 0.121915
1640 7 0.0987343 0.663634 0.160698
421 2 0.0843759 0.59542 0.303276
392 3 0.189288 0.749268 0.0112511
1668 7 0.0319368 0.847804 0.086509
1369 6 0.45835 0.651105 0.223095
2496 7 0.157047 0.731881 0.497642
2217 7 0.228332 0.704599 0.217594
1562 7 0.333083 0.515623 0.265691
633 3 0.192723 0.991363 0.303114
1874 7 0.289111 0.839678 0.384125
1851 7 0.461858 0.899835 0.0353929
1862 7 0.256082 0.886271 0.300804
1614 7 0.483595 0.527686 0.249258
1353 7 0.147592 0.683673 0.105007
1863 7 0.270229 0.916398 0.341529
2126 7 0.203705 0.941983 0.202923
1561 6 0.301268 0.51943 0.274591
2125 6 0.1868 0.916247 0.215482
2443 6 0.45063 0.804522 0.0674519
2062 6 0.252443 0.977937 0.171528
1453 6 0.0426022 0.964149 0.0888847
1613 7 0.474636 0.579432 0.246354
1979 7 0.101228 0.773808 0.107657
2235 7 0.342923 0.982139 0.189513
1599 7 0.313296 0.612609 0.24345
2448 7 0.110389 0.527525 0.183744
2547 7 0.15169 0.905367 0.0540252
1797 7 0.0937687 0.930399 0.346083
2512 6 0.0981154 0.645521 0.452506
1217 3 0.163891 0.510053 0.476841
2514 7 0.119163 0.668367 0.464379
2213 7 0.0738141 0.778121 0.219567
1573 6 0.488149 0.592213 0.138869
393 3 0.137792 0.726618 0.0255139
1850 7 0.424089 0.883778 0.0682861
1955 7 0.318208 0.779795 0.319721
1776 7 0.322946 0.612868 0.134971
2105 7 0.405105 0.565101 0.0308289
389 3 0.151501 0.814514 0.0197046
540 5 0.497522 0.804132 0.178069
1563 7 0.300161 0.509133 0.306192
2501 7 0.26184 0.663353 0.0975402
1732 6 0.0853022 0.549529 0.449842
1456 6 0.139456 0.907203 0.121892
1897 6 0.468481 0.506114 0.178492
798 3 0.224045 0.50462 0.0429872
407 3 0.146165 0.716538 0.312594
1993 6 0.232478 0.915218 0.454626
2229 7 0.390863 0.9157 0.38307
2393 7 0.0201791 0.638557 0.0946809
419 3 0.107913 0.535497 0.328629
406 1 0.168324 0.688824 0.294742
449 4 0.0832361 0.756469 0.420945
1462 6 0.313219 0.929915 0.048838
1622 7 0.470435 0.706123 0.083353
1641 7 0.139716 0.677463 0.190624
443 1 0.047108 0.808543 0.376441
2127 7 0.210236 0.895938 0.22749
1759 6 0.430791 0.684755 0.133052
2136 7 0.20139 0.538973 0.167052
1639 6 0.118777 0.689248 0.167633
1830 7 0.19245 0.864389 0.125811
1726 6 0.326268 0.656525 0.370579
2313 7 0.00968145 0.809917 0.170669
1213 3 0.497659 0.844154 0.383151
1359 7 0.455807 0.554139 0.428011
1449 7 0.3904 0.61464 0.298294
1659 7 0.382927 0.668909 0.0488294
1637 7 0.0207012 0.928324 0.332205
2527 6 0.274721 0.853094 0.251795
179 4 0.0945897 0.958469 0.48996
130 3 0.148979 0.822249 0.499998
2215 6 0.248643 0.683738 0.201525
1774 6 0.295657 0.604907 0.117714
2072 7 0.109874 0.931947 0.432557
1921 6 0.347837 0.617675 0.455177
1447 6 0.403801 0.598927 0.324359
1980 7 0.130453 0.744441 0.140057
2495 7 0.135272 0.739573 0.450388
2340 7 0.334412 0.81816 0.0600696
1352 7 0.197402 0.673687 0.0913832
1597 6 0.301269 0.616892 0.274157
1953 7 0.337346 0.944744 0.468907
2392 6 0.00604854 0.650371 0.0669926
422 1 0.0550339 0.576463 0.284302
1464 7 0.300153 0.937241 0.078528
1795 6 0.0852438 0.93177 0.313969
1978 6 0.130491 0.77325 0.123445
1463 7 0.325879 0.899395 0.0526022
2434 6 0.0192582 0.930133 0.236407
2063 7 0.262034 0.989281 0.201281
1362 7 0.38322 0.587263 0.200231
2528 7 0.294109 0.857804 0.22519
2311 6 0.0184548 0.77842 0.176739
1706 7 0.0832691 0.584125 0.149681
1829 7 0.182074 0.812848 0.124311
2444 7 0.477887 0.793524 0.0830073
1669 6 0.419576 0.978482 0.267087
445 3 0.0603601 0.82388 0.342904
1448 7 0.435253 0.593062 0.315291
2309 7 0.314158 0.503576 0.121538
1046 3 0.462477 0.974027 0.42831
409 4 0.146304 0.669552 0.264859
1657 6 0.384158 0.640076 0.0653523
1207 2 0.443137 0.776538 0.44286
1811 7 0.374692 0.687125 0.334029
411 1 0.185095 0.650579 0.332143
416 3 0.1734 0.575176 0.304159
1775 7 0.301114 0.573773 0.10738
539 4 0.481084 0.794433 0.20445
2513 7 0.0862963 0.658863 0.424431
1705 6 0.072817 0.606592 0.127503
2511 7 0.418726 0.604416 0.387288
797 3 0.192988 0.545492 0.0797972
1828 6 0.207167 0.834573 0.126372
1566 7 0.32969 0.760919 0.148094
534 3 0.416715 0.883651 0.194084
417 3 0.172355 0.576444 0.367466
536 1 0.44661 0.814217 0.197714
532 2 0.481712 0.879447 0.169871
444 3 0.0354854 0.839512 0.396472
1612 6 0.478014 0.554508 0.268108
1951 6 0.32419 0.930637 0.495996
427 3 0.0624875 0.620965 0.223407
1457 7 0.10801 0.897032 0.125581
2445 7 0.449138 0.786532 0.0395231
414 2 0.152209 0.629651 0.342131
1907 7 0.198648 0.801404 0.398457
1621 6 0.487263 0.702763 0.0548674
2545 6 0.160167 0.920232 0.0255107
2134 6 0.178052 0.527811 0.187948
2435 7 0.0467736 0.936568 0.253939
2476 6 0.280604 0.788215 0.0826067
1922 7 0.346275 0.585886 0.445538
2233 6 0.373366 0.969729 0.184504
2447 7 0.0688776 0.504363 0.161236
533 1 0.452881 0.869066 0.198338
2172 7 0.0240967 0.751685 0.0569661
1630 6 0.362184 0.52041 0.438623
420 3 0.0867662 0.581968 0.365364
2214 7 0.10828 0.743833 0.239635
2171 7 0.0288132 0.756024 0.10917
2477 7 0.274619 0.755905 0.0877181
1454 7 0.0358012 0.9332 0.0787934
1792 6 0.175866 0.858533 0.396809
2500 6 0.25263 0.693738 0.10743
1733 7 0.0709437 0.534882 0.423666
1351 6 0.166461 0.661857 0.088456
1857 7 0.409972 0.513109 0.197518
2007 7 0.293961 0.987358 0.296284
2502 7 0.24666 0.690459 0.13998
1753 6 0.275171 0.735255 0.34019
1201 1 0.401184 0.731766 0.493038
2104 6 0.427052 0.540788 0.0250799
2228 7 0.360866 0.896601 0.421823
1755 7 0.281732 0.705404 0.353296
1994 7 0.214144 0.936255 0.472714
2548 6 0.130018 0.851944 0.299196
2397 7 0.058311 0.659947 0.346762
2098 6 0.318438 0.885921 0.17605
1793 7 0.194082 0.877916 0.416768
1202 3 0.371683 0.706157 0.49202
1210 3 0.416141 0.813959 0.396904
801 3 0.158564 0.578093 0.0143055
1861 6 0.246658 0.895235 0.33141