ITEM: TIMESTEP
10020000
ITEM: NUMBER OF ATOMS
2610
ITEM: BOX BOUNDS pp pp pp
-1.4391884350598822e+01 1.4391884350598822e+01
-1.4391884350598822e+01 1.4391884350598822e+01
-1.4391884350598822e+01 1.4391884350598822e+01
ITEM: ATOMS id type xu yu zu
2385 7 -8.25109 -5.61493 -8.09698
1054 3 -0.40775 -8.08089 -3.81676
617 3 -12.7488 -12.1202 -8.07745
1520 7 -2.62813 -5.13976 -9.96987
660 2 -8.35006 -9.53532 -9.45261
223 3 -1.38418 -6.12687 -6.66557
215 3 -5.35199 -7.47604 -8.79106
2348 7 14.8766 -8.55854 14.5401
775 1 14.8195 -3.16197 -9.46041
217 2 -3.48686 -7.11922 -8.41669
2411 7 -11.6985 -3.92604 -10.911
659 3 -8.86338 -8.19826 -10.8758
624 3 16.6211 -9.7333 -11.4353
1523 7 -1.94081 -8.7046 -9.78009
138 3 -2.97977 -13.6972 -0.385659
654 1 -10.339 -8.66505 -9.16006
541 1 -7.34801 -3.79171 -0.548135
1807 6 15.3406 -4.92611 -4.37228
1498 6 -7.33352 -4.97031 -12.5192
553 1 -4.82845 -0.890497 -2.67482
2210 7 -1.99141 -11.2908 15.3412
211 1 -4.0633 -7.27485 -10.5916
1986 7 -4.12628 -2.91127 -9.75818
2544 7 -4.48185 -3.13344 -2.05143
613 3 14.8222 -11.5583 -6.06946
1926 7 -5.4553 -8.94323 -3.77071
407 3 -9.44559 -0.235095 -7.96181
1947 7 -7.50636 -12.833 -2.85701
140 5 -5.33612 -14.1381 -1.44107
1625 7 -12.1345 -4.45097 -3.24011
810 5 -13.384 -0.293798 15.1559
2259 7 -1.06936 -1.69188 -9.23051
1500 7 -7.61431 -4.96647 -13.4343
1882 6 -2.15123 -7.25043 -2.03519
212 3 -4.7894 -6.91173 -11.3207
1364 7 -0.886893 -7.51246 -0.704888
2061 7 17.2147 -6.52573 0.0271535
653 2 -10.3164 -8.50595 -8.04544
213 3 -3.96947 -8.4104 -10.5804
2086 6 -7.80961 -7.158 -3.26807
2255 7 -5.11153 -6.11686 -2.42442
543 3 -6.89084 -4.81438 -0.648734
209 3 -2.92565 -5.98213 -12.3603
625 3 14.9978 -10.2582 -12.0964
646 2 -11.0068 -8.72113 -5.39448
137 3 -4.20561 -12.4614 -0.86613
2542 6 -3.80231 -3.68167 -1.65912
1691 7 -3.7542 -0.580791 -10.4029
2545 6 -10.4949 15.8757 -10.3925
2410 6 17.2741 -4.86328 -10.8647
205 3 -0.848822 -5.95736 -12.3662
225 5 -2.21519 -8.04763 -7.77391
658 3 -8.31324 -7.79235 -9.28646
2347 6 15.5183 -9.26634 14.4812
626 1 15.1905 -8.37739 -11.0316
777 3 14.9933 -4.29908 -9.42809
1958 7 -13.7008 -2.06168 -0.765184
647 1 -11.0771 -7.73312 -6.08238
778 1 15.3832 -2.54737 -10.7764
766 1 -11.9293 -3.97586 -7.59181
791 3 -9.69877 -3.17692 -13.1344
655 3 -10.8323 -7.91507 -9.79252
783 3 15.979 -0.4205 -11.6638
649 3 -10.0093 -7.32817 -6.06353
673 3 -3.99798 -11.1774 -7.85184
772 3 -14.0916 -3.91229 -7.34257
2462 7 -8.20029 -2.57898 -7.25856
767 3 -11.6781 -4.21737 -6.52667
1394 7 -5.46084 -2.50419 -11.784
1884 7 -2.28644 -7.93234 -2.69318
2470 6 -8.84747 -5.04307 -10.1121
651 3 -12.0801 -8.89336 -7.7008
1497 7 -2.40476 -12.9453 -10.7917
669 3 -6.68523 -12.5464 -7.55551
2300 7 -5.88773 -4.69143 -4.8448
631 1 -11.3327 -12.6614 -4.50419
2285 7 -12.4411 -0.833631 -2.40591
1675 6 -7.85047 -2.33297 -9.82984
2030 7 -2.26253 -3.38405 -7.89336
856 1 16.059 -5.63634 -13.855
1742 7 -3.34124 -12.1243 -3.83167
556 2 -4.46469 -0.858675 -1.60216
198 3 -0.0606216 -6.32823 -8.51914
642 3 -12.0564 -9.35847 -2.73124
2034 7 -4.37822 -13.4407 15.1652
770 5 -11.5781 -2.96645 -8.96064
2286 7 -11.365 -0.331801 -1.46679
203 2 -0.716961 -6.64596 -10.6862
2271 7 -4.1505 -5.32551 -0.814352
2487 7 -1.76507 -13.5072 -4.82397
1519 6 -2.46195 -4.26201 -9.62609
637 3 -11.7412 -12.0312 -2.43315
1671 7 -0.46019 -12.2865 -11.0482
628 3 -12.7466 -7.71951 -10.8354
545 5 -5.86635 -2.89542 -0.123425
2270 7 -3.57164 -6.72221 -0.892047
859 4 16.5756 -6.40307 -13.1186
2209 6 -2.74087 -10.7557 15.08
2284 6 -11.5013 -0.659526 -2.35576
1495 6 -3.00811 -13.5135 -10.3128
1681 6 -6.78354 -7.63591 -12.6988
788 2 -10.9574 -1.84436 -12.8102
667 2 -6.26201 -11.1155 -8.89464
1945 6 -7.92315 -11.9805 -2.73138
413 3 -11.1549 -0.528735 -5.79772
607 3 14.8651 -6.94794 -6.80141
650 1 -11.3459 -8.15897 -7.56574
1395 7 -6.55129 -3.27772 -12.4943
1676 7 -7.61339 -2.12597 -10.7338
1423 6 14.9606 -2.02509 -2.70131
615 2 15.0445 -10.6098 -7.86255
2211 7 -3.48535 -11.3568 15.1052
136 1 -4.01805 -13.5898 -0.651399
780 3 14.5749 -1.87841 -11.1038
2011 6 -3.22172 -10.4862 -4.68848
612 1 15.068 -10.6224 -6.67672
2095 6 -6.25162 -1.88666 -7.55204
2423 7 -7.72051 -9.15079 -7.65004
1425 7 15.3781 -2.62054 -3.32373
2183 7 -1.32919 -3.66145 -4.55607
560 1 -2.63141 -0.70515 -0.215393
2537 7 -1.35119 -1.3727 -12.8682
1683 7 -6.32779 -8.45493 -12.893
1692 7 -2.9942 -0.246176 -11.6688
2381 7 -13.899 -7.85955 -2.856
2031 7 -2.3077 -2.02998 -7.21782
2472 7 -8.46311 -5.2054 -10.9736
664 1 -7.00049 -11.2662 -9.77132
2005 6 -7.35381 -13.9755 -5.50318
774 2 -13.4661 -2.57457 -8.57891
2301 7 -6.75099 -4.34176 -6.03829
552 3 -6.3857 -1.73274 -3.79139
1053 3 -0.19771 -9.15253 -5.09394
1442 7 -9.47281 -10.0874 -6.43298
786 3 -10.2334 -0.175938 -12.0576
2184 7 -0.977207 -2.86713 -5.79585
2299 6 -6.32741 -3.956 -5.27149
208 3 -2.90622 -7.72111 -12.5645
2461 6 -8.88957 -2.71419 -6.6083
2536 6 -2.29976 -1.26755 -12.9416
2257 6 -0.77782 -1.57624 -10.1349
768 3 -12.0076 -4.92303 -8.20792
1049 3 -0.725179 -10.8409 -3.83176
1393 6 -6.0317 -2.47588 -12.5518
2087 7 -8.13221 -6.96304 -2.38821
638 3 -12.731 -11.2095 -3.58421
1357 6 5.59717e-05 -4.59778 -1.67077
1725 7 -4.95793 -3.96948 15.3788
1522 6 -1.55569 -9.5789 -9.72062
2208 7 -1.62128 -0.111898 -5.0688
657 1 -8.89678 -8.578 -9.81645
732 3 15.3457 -0.169011 -8.69374
546 1 -7.19636 -2.99017 -1.90606
548 3 -7.24737 -3.6469 -2.79191
1883 7 -2.02935 -6.44804 -2.54269
782 1 -12.0093 -1.05767 -11.1406
2485 6 -1.08158 -13.9551 -5.32246
1561 6 -9.26416 -0.589965 -3.97776
554 3 -4.15291 -1.46095 -3.3388
2538 7 -2.53571 -1.7604 -13.7276
2539 6 -6.30799 -9.46385 -2.40151
1984 6 -4.70216 -2.15198 -9.848
663 3 -6.95463 -9.28303 -10.6822
220 3 -4.07578 -6.92365 -6.63001
771 1 -13.2576 -3.21158 -7.63177
2029 6 -1.75051 -2.7995 -7.33446
1670 7 -1.42585 17.6632 -11.0404
547 3 -8.18289 -2.47167 -2.05681
2412 7 18.1841 -4.91056 -10.5716
1502 7 -3.08135 -4.67192 -3.21509
662 3 -8.29264 -10.3598 -11.1388
666 3 -7.87417 -11.7798 -9.36919
1654 6 -6.32273 -10.2289 15.4648
633 3 -11.7596 15.1668 -4.20871
661 1 -7.67085 -9.99507 -10.2964
1562 7 -10.0717 -0.453574 -3.48229
640 1 -11.1616 -9.64942 -3.26884
1626 7 -10.6535 -4.39346 -3.54898
781 2 -12.2764 -2.1552 -10.7229
1521 7 -1.65105 -3.98641 -10.0535
648 3 -11.7367 -6.92276 -5.7404
787 3 -9.89829 -1.62307 -11.141
1443 7 -9.56799 -11.2724 -5.49556
2424 7 -7.81821 -9.24836 -6.14245
670 3 -5.567 -12.8741 -9.04583
2463 7 -9.6937 -2.78656 -7.12247
2013 7 -3.71325 -11.0004 -5.32894
671 1 -4.83952 -11.6106 -7.38821
1441 6 -8.96029 -10.8119 -6.07428
769 4 -11.201 -3.23736 -8.0889
2382 7 -14.1699 -6.8366 -1.77337
1741 6 -3.24132 -13.0753 -3.8758
668 1 -5.95851 -12.0721 -8.28925
2543 7 -3.28714 -3.07863 -1.12322
645 3 -9.77273 -8.29115 -4.09734
2541 7 -6.82927 -8.68481 -2.59538
1653 7 -9.23091 -7.50684 -0.343338
623 1 15.5708 -9.86655 -11.154
2007 7 -7.90039 15.5927 -5.54922
641 3 -10.3241 -9.67584 -2.49525
2540 7 -6.93092 -10.1887 -2.45433
1999 6 -0.0677653 -0.346345 -3.77579
1496 7 -3.67631 -12.9197 -9.97044
2380 6 -13.922 -6.91636 -2.69446
2384 7 -7.92805 -6.74205 -7.1393
619 1 15.0518 -11.4017 -9.92414
1669 6 -1.193 16.8764 -11.5334
2254 6 -5.41926 -5.91866 -3.30887
2471 7 -8.56179 -4.15824 -9.88472
1624 6 -11.3116 -4.06965 -2.93392
2269 6 -4.38261 -6.24807 -0.708334
216 3 -4.73327 -5.86891 -9.1405
789 1 -10.0717 -2.20828 -13.4842
656 3 -10.8752 -9.59884 -9.48922
2547 7 -10.4706 16.304 -11.2482
219 3 -3.45189 -5.41397 -7.44708
2590 6 -10.12 -8.87847 -14.1062
1403 7 -9.02388 -5.48293 -4.98985
1677 7 -7.21804 -1.84877 -9.29898
2592 7 -10.9513 -8.5372 -13.7765
1499 7 -6.9462 -5.83616 -12.3906
2422 6 -7.3871 -8.75878 -6.84294
773 3 -13.235 -2.48465 -6.85618
735 3 14.7387 -0.270133 -6.52421
408 3 -11.1482 -0.810486 -8.33091
2383 6 -7.70098 -5.83527 -7.34527
2546 7 -11.3665 15.4828 -10.3455
2256 7 -5.15335 -6.67572 -3.83077
550 1 -6.20945 -1.54144 -2.68054
674 4 -5.14714 -10.8521 -6.60861
2064 7 -10.305 16.4933 -8.60846
1656 7 -6.73247 -10.1617 14.6023
860 5 16.8792 -5.93837 -12.3176
207 1 -2.60952 -6.89927 -11.8729
622 2 15.7133 -10.4115 -10.0652
1924 6 -4.97956 -8.49262 -4.46846
634 4 -10.1795 -12.869 -4.69495
2096 7 -5.96341 -2.45052 -6.83425
643 1 -10.8794 -8.50052 -4.26328
652 3 -11.5677 -7.16557 -8.09895
784 3 16.7467 -0.489207 -10.1996
2203 6 -11.7731 -4.34233 -0.172786
618 3 14.2707 -12.3908 -8.22374
632 3 -11.7598 -12.4351 -5.45626
1723 6 -4.51762 -4.54134 14.75
222 3 -2.40969 -7.25428 -5.53133
1563 7 -9.35333 -1.46957 -4.3446
218 1 -3.35692 -6.51856 -7.39681
672 3 -4.36292 -12.474 -6.92566
621 3 -13.3177 -12.304 -10.3629
549 2 -6.222 -2.46384 -1.93243
1682 7 -7.63782 -7.73091 -13.12
614 3 16.1543 -10.6232 -6.40066
675 5 -5.40039 -10.1258 -7.19378
857 3 16.3712 -4.63227 -13.6737
1946 7 -8.7673 -12.0582 -3.1759
611 3 -13.3233 -8.98912 -5.50454
665 3 -6.74945 -11.8823 -10.7369
1404 7 -9.18862 -4.05028 -5.45057
639 2 -10.9637 -10.6739 -3.78993
616 1 15.0562 -11.6786 -8.39292
2032 6 -5.07636 -12.7889 15.2283
1402 6 -9.58539 -4.71457 -4.88709
2205 7 -11.4274 -4.23736 -1.05915
636 1 -11.6614 -11.5456 -3.45493
2012 7 -3.70248 -9.66105 -4.62338
561 3 -1.57064 -0.7252 -0.44291
558 3 -2.55034 -0.68815 -2.40768
2258 7 -0.357645 -0.71623 -10.1434
557 1 -3.35725 -0.473799 -1.59328
2062 6 -10.2719 16.2204 -7.69158
139 4 -4.40555 -14.162 -1.55209
2097 7 -6.24584 -1.00423 -7.1812
1925 7 -5.57793 -8.50771 -5.21542
2575 6 -10.564 -11.6172 15.427
2088 7 -7.02178 -6.62202 -3.35905
635 5 -10.1586 -13.6665 -5.18481
2001 7 -0.181525 -1.29622 -3.80794
224 4 -1.63925 -7.9015 -7.02701
785 1 -10.6549 -1.20271 -11.8384
1652 7 -7.76862 -7.67945 0.00850279
210 2 -3.06142 -6.75426 -10.7915
542 3 -8.44784 -3.86545 -0.149549
1501 6 -2.19745 -4.86025 -3.5305
221 1 -2.12216 -6.97518 -6.5869
2506 6 -12.3246 -14.1129 -13.7211
156 3 -10.3337 -12.8829 -0.838532
644 3 -11.5338 -7.71196 -3.79005
214 1 -4.46674 -6.94188 -9.08576
1503 7 -1.62046 -4.44005 -2.89273
1655 7 -5.90291 -11.0891 15.4646
1985 7 -5.15777 -2.09564 -9.00807
790 3 -9.09799 -1.66204 -13.4476
2576 7 -9.76193 -11.8919 14.9827
2063 7 -9.62045 16.7973 -7.29284
2577 7 -10.5995 -10.6699 15.2942
1743 7 -3.56314 -13.3898 -3.03099
1040 5 -0.0645605 -10.6819 -0.637546
551 3 -6.95063 -0.730668 -2.39115
161 3 -12.3449 -14.4915 -0.360219
1218 3 -8.68419 -0.449449 -0.747518
2235 7 -4.31146 14.8293 -5.23203
779 3 15.3449 -3.32521 -11.4919
204 1 -1.11036 -6.92585 -11.7812
1358 7 0.177395 -5.44801 -1.2684
2457 7 -5.82826 -9.29314 -0.48027
2182 6 -0.745053 -2.97267 -4.87325
2059 6 -11.1891 -7.36841 -0.221426
2006 7 -7.33177 -14.1984 -4.57254
1651 6 -8.36641 -7.12344 -0.491227
627 3 14.7083 -8.03117 -11.9695
2201 7 -13.4862 -5.50019 -0.0833611
2206 6 -2.34806 -0.280432 -5.66848
2507 7 -12.0181 -13.2108 14.9704
206 3 -0.733557 -7.87514 -12.2414
630 5 14.7402 -8.91627 -9.55987
1524 7 -0.611092 -9.42467 -9.70752
1724 7 -3.71292 -4.07489 14.5239
1808 7 15.0979 -5.62264 -3.76222
1829 7 -8.73709 15.3779 -14.2669
861 1 14.5231 -5.77967 14.8027
2349 7 15.0052 -10.0658 14.5984
1809 7 14.5087 -4.52057 -4.61676
2561 7 -0.288619 -3.08182 -11.1939
609 1 14.5284 -9.31084 -6.01207
2486 7 -1.55058 -14.3935 -6.03242
809 4 -14.2983 -0.0638045 15.3954
2237 7 -9.1933 -7.24113 14.2174
2132 7 14.765 -14.3512 -2.60814
2273 7 -0.283005 -11.9466 -7.35778
2033 7 -5.61672 -12.9402 14.4529
1959 7 -12.7618 -2.91699 0.0585462
2523 7 -8.14683 -9.77917 13.1397
2140 6 -9.08429 -0.00642418 4.03876
71 3 -0.941668 -2.30242 7.43134
249 1 -5.33363 -1.3585 12.2771
353 1 -6.76316 -7.5971 9.10923
563 2 -2.99627 -1.68065 0.374482
2323 6 -7.63614 -3.99992 3.08599
333 3 -9.77812 -5.89062 4.2686
2076 7 -6.36921 -8.00734 12.9095
1752 7 -12.806 -1.65658 7.56722
574 1 -4.57255 -2.98487 4.677
572 3 -4.27442 -4.68296 3.2211
1816 6 -0.40404 -11.0261 10.3795
2102 7 -1.98588 -6.71794 13.2628
1734 7 -10.8009 -0.220522 0.919509
160 3 -13.319 -13.0867 0.376872
2101 6 -1.40613 -6.08556 12.8383
566 3 -1.59835 -2.79242 0.184155
79 1 -0.0443578 -6.48625 4.34631
2415 7 -2.45021 -8.78823 7.18062
336 3 -10.6707 -8.27244 2.50893
1802 7 -5.14464 -9.99266 2.62729
2142 7 -8.47084 -0.567809 4.51285
334 3 -10.7731 -5.86186 2.86138
351 3 -5.56772 -8.34495 7.19841
145 1 -6.77742 -14.0583 1.08401
1990 6 -1.29094 -8.75345 8.61211
2021 7 -5.32686 15.4901 4.54226
1538 7 -13.9078 -11.2126 8.19812
1038 3 -0.420963 16.4756 1.09736
323 3 -13.8036 -7.50406 7.78016
2432 7 -9.99711 15.8513 10.0129
341 3 -8.35006 -9.2468 3.41424
154 3 -10.0924 -12.1505 2.05584
155 1 -10.8557 -12.6389 0.203622
2236 6 -8.79562 -6.39574 -14.7747
358 3 -7.99477 -7.98736 10.8178
2450 7 -5.18687 -11.4005 7.95954
2121 7 -3.86436 -13.8395 9.78051
343 3 -9.62693 -10.0395 6.06192
798 3 -10.4602 -1.05394 -16.9647
2455 6 -6.24111 -9.01016 0.335634
1932 7 -9.44734 -9.90556 8.54214
344 3 -8.35014 -10.9403 5.33338
2555 7 -11.5298 -1.07083 4.16755
1991 7 -1.75145 -8.4008 9.37355
1665 7 -12.3518 -8.37452 4.74851
585 5 -3.04318 -0.545713 5.62811
2317 6 -11.0816 -1.81883 6.5946
1219 4 -8.94248 -0.299194 1.03467
346 1 -7.08716 -8.89967 5.99125
2173 6 -3.14659 16.9586 9.9846
2324 7 21.416 -3.82379 2.18423
159 1 -12.4241 -13.8305 0.545363
339 1 -9.23118 -9.34828 4.08288
245 1 -6.08051 -1.60452 10.5174
1391 7 -2.64924 -4.26459 11.0872
1413 7 -8.09532 -3.14799 6.22949
1377 7 -9.39679 -4.01261 8.52836
2247 7 -9.28369 -3.4001 2.26942
357 3 -7.59394 -6.18351 10.6437
1931 7 -7.97165 -9.58262 8.4425
72 1 -1.22161 -4.16592 6.36714
2391 7 -13.5241 -11.6437 3.01235
1642 6 -0.557243 15.5937 5.40022
1801 6 -5.84327 -10.6191 2.81613
1643 7 -1.27536 14.961 5.41683
2591 7 -10.3031 -9.1204 13.7697
352 2 -7.08894 -8.21604 8.22625
2413 6 -3.03234 -9.23739 6.56774
354 3 -6.1762 -8.40033 9.68288
1515 7 -10.6526 14.9367 12.3035
583 3 -4.49482 0.0263244 7.66169
149 3 -7.14365 -12.0017 0.97486
319 4 -11.3333 -9.04297 7.85103
1750 6 -13.693 -1.99073 7.70104
1418 7 -2.02545 -10.11 1.00768
1584 7 -1.15652 -10.0243 13.1822
148 1 -7.75946 -12.8343 1.41232
2262 7 -4.68502 -4.60255 12.4317
2022 7 -4.65703 16.5044 5.44469
2318 7 -10.8692 -2.73696 6.76243
578 1 -4.49934 -1.73711 6.18596
1419 7 -2.86855 -8.94113 1.47104
1992 7 -1.13132 -9.67127 8.83203
2449 6 -4.73058 -10.6148 8.26077
2554 6 -12.1163 -1.82702 4.14822
2605 6 -10.2024 14.5516 5.32739
322 3 -12.6362 -6.36126 8.43826
1745 7 -3.66175 -6.78781 10.7004
331 2 -11.2904 -6.57231 4.57113
1702 6 -2.27744 -3.07592 13.5615
1928 7 -3.48782 -7.55988 3.52581
1828 6 -8.27995 16.0405 -14.7848
70 3 -0.801762 -3.75822 8.42069
2107 6 -13.8847 -2.30562 12.3146
251 3 -4.33541 -0.920841 11.9472
1375 6 -9.10154 -4.02777 7.61796
327 3 -12.6702 -4.90174 6.7173
1912 6 15.5233 16.9535 11.5987
1803 7 -5.50253 -11.1485 3.5372
252 1 -5.62782 -0.658551 13.6235
345 2 -8.24791 -9.00094 6.03433
1412 7 -7.95077 -3.02605 4.72745
240 3 -8.3312 -0.701262 7.78888
1751 7 -14.2637 -1.28665 7.39313
2148 7 -13.2697 -3.43071 10.4783
1646 7 14.411 -1.71076 1.39419
2020 6 -4.74172 16.2475 4.52652
2245 6 -10.0562 -2.90957 1.98868
1918 6 -9.38094 -6.71743 6.72955
1780 6 18.1861 -3.53636 10.4594
342 1 -8.68782 -9.91794 5.46214
144 2 -6.00266 -13.8297 0.251036
78 3 -0.772248 -6.70616 6.5049
332 1 -10.5114 -6.43651 3.70049
2390 7 -12.8196 -10.311 2.87232
1583 7 -1.01635 -8.78162 12.3289
1791 7 -5.81754 -7.09131 2.83345
248 2 -6.23518 -1.18502 11.6602
2251 6 -3.38965 -8.5608 13.075
1744 6 -3.71472 -7.71458 10.4669
1344 3 -0.127353 -0.644986 13.5457
2103 7 -0.689979 -5.96081 13.461
2075 7 -6.32062 -6.58132 13.4155
1390 6 -1.83769 -4.12083 10.6004
1568 7 -6.09266 -13.4263 7.59746
329 3 -12.9567 -5.83144 4.101
2430 7 -7.39238 17.6326 10.1444
1514 7 -11.5408 16.1487 12.488
73 3 -2.22231 -4.43236 6.66101
2428 6 -6.62109 17.4562 10.6832
1647 7 14.8439 -1.25486 2.77135
77 3 -1.87917 -6.05394 5.30181
568 3 -3.80197 -3.69013 1.07259
2431 6 -10.0402 -12.6083 9.11336
1569 7 -4.6664 -13.7546 7.21025
2018 7 -13.4304 15.2958 11.6657
569 3 -2.29058 -4.31249 1.96043
2564 7 -0.367874 -11.5629 7.00651
2146 6 -13.2098 -3.80341 9.59868
1733 7 -12.175 -0.654903 0.455989
1536 7 -9.9909 -9.77324 11.3033
239 3 -9.61364 -1.33194 8.87648
1920 7 -9.30526 -7.52002 6.21345
325 1 -12.7158 -5.98041 6.24751
858 3 16.4036 -5.79038 -14.8992
2319 7 -11.5302 -1.82697 5.74909
360 5 -8.68946 -7.01811 8.54007
317 3 -12.3574 -8.70118 9.29188
250 3 -5.18995 -2.38725 12.5602
337 3 -9.16801 -7.49052 2.50849
1703 7 -2.11401 -2.5008 12.814
348 3 -6.90424 -8.30541 5.05352
1962 7 -0.711865 -13.343 13.7349
243 3 -7.07787 -2.13858 8.76252
2522 7 -7.11095 -10.3527 12.1964
81 3 -0.0299818 -7.53466 4.35346
238 1 -8.75546 -0.581203 8.79639
2253 7 -3.40258 -9.39034 13.5524
1363 6 -0.41486 -7.2131 0.0721592
1392 7 -1.15471 -4.49584 11.1564
1485 7 -5.4825 -12.049 12.1033
350 3 -6.50022 -7.00366 6.77043
2252 7 -4.25042 -8.17579 -15.5443
1417 6 -2.76812 -9.88797 1.56924
1789 6 -6.62485 -6.72903 2.46842
1919 7 -10.3156 -6.51121 6.7169
330 3 -11.7246 -4.68752 4.79499
2389 6 -13.154 -11.0478 2.36098
2224 6 -2.89944 -7.15434 1.50895
1940 7 -13.3325 -8.33264 11.4366
2456 7 -6.21071 -9.78239 0.900403
355 3 -6.19398 -6.66958 8.89813
577 2 -3.95505 -2.08773 5.17473
1746 7 -3.5229 -8.17874 11.2818
324 2 -12.2096 -6.89387 6.78454
1484 7 -5.3431 -13.5539 12.1906
1896 7 -13.6127 15.8094 9.13834
246 3 -5.49036 -2.47076 10.1309
1537 6 -13.1908 -11.2012 8.83221
795 2 -11.1923 -1.59314 -15.2359
253 3 -6.68003 -0.923957 13.8751
335 1 -9.94262 -7.71318 3.22268
1913 7 -14.0418 -11.5151 12.0531
1904 7 -11.8912 -12.3157 6.94971
2414 7 -3.65986 -9.69688 7.12571
564 1 -2.21829 -2.28505 0.948771
338 2 -9.72842 -8.37751 4.22706
2189 7 -0.503669 -10.0752 3.14706
2225 7 -3.52697 -6.67375 0.969063
242 1 -7.46534 -1.7392 9.77778
1778 7 -13.4095 -12.2913 5.14815
1927 6 -4.27272 -7.51028 4.07143
792 1 -10.438 -2.46012 -14.961
80 3 -0.559489 -6.02568 3.40376
565 3 -1.51861 -1.76756 1.66343
1888 6 -3.63614 -5.65216 8.26256
544 4 -6.6606 -3.33462 0.287194
2374 6 -10.414 -6.35871 11.8363
575 3 -5.0615 -3.85672 5.19275
2261 7 -5.14079 -5.85276 11.7098
2433 7 -9.60634 -11.7556 9.14452
1534 6 -9.81912 -10.3296 12.063
142 3 -4.40449 -13.6267 1.51673
1930 6 -8.57969 -10.3069 8.5906
254 3 -4.95999 -1.1862 14.3012
1890 7 -3.37998 -5.31445 9.1208
150 3 -7.91046 -12.7078 2.55545
1663 6 -12.8015 -9.0297 4.21484
794 3 -11.0824 -3.39028 -15.0682
359 4 -8.79649 -6.91932 9.51263
318 3 -10.9689 -7.70714 9.08283
2375 7 -10.0274 -6.64847 11.0099
2175 7 -2.22618 17.1498 10.1649
356 1 -7.83033 -7.11108 10.0935
1929 7 -4.09253 -8.09807 4.8051
1914 7 15.4967 17.388 10.7462
1227 3 -6.35218 -0.764657 2.16639
1704 7 -1.57076 -3.72064 13.5273
1830 7 -8.91542 16.306 -15.4496
151 2 -8.80398 -13.0937 0.852255
316 1 -11.7594 -8.19485 8.55654
581 1 -4.40623 -0.227448 6.54138
244 3 -8.09835 -2.50576 10.1839
1903 6 -11.6627 -12.1058 6.04417
326 3 -13.7908 -6.23118 6.05998
570 2 -3.43838 -2.93561 2.79056
2325 7 -7.54196 -4.94745 3.1837
321 1 -12.6504 -7.25683 7.74644
1411 6 -8.00224 -2.50359 5.52783
1539 7 -12.5482 -10.599 8.45708
793 3 -9.56911 -2.71672 -15.5706
320 5 -11.1624 -8.62424 7.00159
2559 7 -13.2877 -10.2528 0.786324
1782 7 17.3358 -3.56558 10.0208
1513 6 -10.6693 15.8871 12.1907
1664 7 -12.5662 -9.86715 4.61429
2521 6 -7.20834 -9.77257 12.9515
1818 7 -0.355459 -10.4645 11.1531
1226 3 -4.94946 0.0252604 1.37766
2226 7 -2.06133 -7.04176 1.06048
1770 7 -2.34943 -10.3637 4.96665
1777 6 -14.1701 -12.2008 4.57417
1535 7 -10.4606 -11.0365 11.9927
2147 7 -13.5398 -3.11371 9.02281
579 3 -4.00667 -2.33632 7.04285
2429 7 -5.91328 17.3232 10.0527
2451 7 -4.05722 -10.9422 8.85715
2108 7 -13.1516 -2.09051 12.8912
163 3 -12.3768 -14.6156 2.71086
241 2 -7.95467 -0.691747 9.61608
76 1 -0.817796 -6.00669 5.62251
2074 6 -5.9684 -7.15568 12.7356
1790 7 -6.4171 -6.55748 1.54992
2556 7 -11.6869 -2.44889 3.56079
347 3 -6.47594 -9.83592 6.0484
340 3 -9.82341 -10.2006 3.73174
1781 7 18.2435 -4.36934 10.9275
1582 6 -0.503508 -9.46046 12.7676
573 3 -2.82638 -4.18345 4.05651
349 1 -6.57753 -8.01432 7.19442
1483 6 -4.85046 -12.7405 12.2997
2376 7 -11.1243 -6.97927 11.9996
152 1 -9.61033 -12.2794 1.0406
571 1 -3.75296 -3.76268 3.56612
247 3 -5.6763 -0.625151 10.1611
1376 7 -9.21707 -4.93741 7.34332
580 3 -5.59892 -1.80037 6.29724
1567 6 -5.34448 -13.0871 7.10619
1905 7 -11.1079 -12.833 5.76198
796 1 -10.8673 -0.73564 -15.9755
2174 7 -3.5178 16.7384 -17.9448
567 1 -2.96796 -3.39464 1.80855
328 1 -12.0679 -5.73884 4.82544
576 3 -5.48127 -2.42517 4.12558
75 2 -0.474071 -4.9075 5.79279
1768 6 -2.06113 -10.9439 4.26203
2238 7 -9.32344 -6.05347 -15.4961
1039 4 -0.402721 -10.6734 0.261676
2246 7 -9.71146 -2.06609 1.69556
1941 7 -12.7817 -8.34345 12.8467
1769 7 -2.79756 -10.9635 3.65086
1939 6 -12.5226 -8.2182 11.9338
74 3 -1.41588 -3.40116 5.5667
69 1 -0.488605 -3.29411 7.44469
2260 6 -4.58901 -5.0775 11.6062
1644 7 -0.898118 16.3304 4.89297
2306 7 -2.96724 -0.541746 3.15443
1889 7 -3.27959 -6.54014 8.2379
2204 7 -11.1273 -3.91406 0.389059
1960 6 -0.475974 -12.4955 13.3576
141 1 -4.82784 -14.0665 0.574939
797 3 -9.96656 -0.166162 -15.6037
158 2 -11.2236 -13.6696 0.677728
1894 6 -13.6608 14.8874 8.88582
1957 6 -13.226 -2.07993 0.0657506
2557 6 -13.5022 -9.65487 0.0702733
2558 7 -14.0955 -9.01411 0.462235
2060 7 -11.9157 -7.98804 -0.155488
153 3 -9.38219 -11.2654 0.589337
1222 3 -6.59137 -0.850156 0.100313
157 3 -11.453 -11.7156 0.0339753
1658 7 -3.68129 4.61127 -11.581
2113 6 -3.16307 9.52216 14.748
1258 3 -2.66016 4.68495 -4.43772
1863 7 -12.4143 11.705 -7.40162
170 3 -12.475 -17.5865 -0.237159
1371 7 -3.56722 8.82715 -8.37642
1558 6 -10.3326 3.99896 -6.59418
1810 6 -1.17884 7.08691 -6.39773
1850 7 -3.68438 7.41078 -14.047
2026 6 -7.2102 14.1029 -2.80261
1857 7 -5.61283 4.05868 -8.18073
2316 7 -10.5011 2.56941 -1.40144
1804 6 -9.88878 10.325 14.5158
410 5 -11.3781 1.57437 -8.04262
1260 5 -3.40863 3.40947 -2.19363
436 1 16.5304 8.32394 -3.28555
397 2 -10.1588 3.10331 15.1974
1204 1 -1.03883 9.52136 -3.22087
1794 7 -8.78002 10.6076 -1.78728
1881 7 -8.41642 -14.8018 -12.3159
1559 7 -10.5254 4.90037 -6.33626
2303 7 -7.98156 10.3984 -8.88671
1202 3 -1.68994 7.51145 -2.78448
1205 3 -1.90342 9.52547 -3.95757
2395 6 -12.0057 4.88662 -3.10362
1251 3 -0.311301 2.42088 -1.40496
440 3 18.536 8.92019 -2.84694
393 3 -12.5078 3.8181 -11.6256
2071 6 -10.6324 11.4346 -2.29774
2483 7 -6.6352 11.009 -0.575516
2304 7 -7.21549 9.12625 -8.59249
1707 7 -13.1811 7.30302 -7.23537
2099 7 -2.25141 10.67 -7.42588
1631 7 -5.60983 4.01392 -1.42693
2396 7 -11.731 5.78101 -2.90145
1760 7 -3.87411 6.56247 -8.06176
2234 7 -5.61726 14.5247 -5.93488
392 3 -10.8367 4.11222 -11.0599
419 3 -14.0609 2.13093 -6.12063
1875 7 -9.47168 12.5973 -5.64
2207 7 -2.90614 0.493541 -5.5927
1761 7 -3.48952 7.04493 -9.44423
2529 7 -6.47143 7.1559 -7.0066
1257 3 -3.24662 5.25345 -2.91844
1211 1 -1.04237 12.8168 -2.50768
1206 3 -0.125208 9.15656 -3.68326
2221 6 -6.13502 0.984329 -8.69398
729 2 14.5014 1.38177 -8.56471
444 3 -9.16122 7.72644 -1.2545
1892 7 -4.61512 6.4768 -2.8495
1217 3 -8.92917 1.14303 -0.0945724
2116 6 -3.5189 -14.9704 15.8873
1352 7 -1.1972 7.2241 -12.75
416 3 -12.6489 0.721311 -4.79128
450 5 -11.484 6.71977 -0.0936792
2227 6 -5.32226 12.115 -3.5375
2510 7 -5.71461 3.9006 -4.35186
1208 1 -0.890357 11.4944 -3.31877
1436 7 -1.56377 1.08247 -8.55194
442 2 -10.779 7.19595 -2.05192
399 3 -8.50179 2.36002 15.8522
260 3 -4.88769 3.19612 15.0079
395 3 -11.8099 2.35701 15.4842
1451 7 -5.70008 4.82535 -9.94196
1452 7 -7.14003 5.16998 -9.62625
2378 7 -3.08247 -14.8641 -7.41986
1212 3 -1.95137 13.3443 -2.7556
424 3 -13.0246 4.69177 -7.44494
385 3 -12.2504 6.69193 14.5991
1370 7 -4.71429 9.8114 -8.29049
1806 7 -10.3661 10.0695 15.3052
2265 7 17.3315 -15.7928 17.8462
2073 7 -10.1069 11.7653 -3.02619
2418 7 -4.53213 -17.2934 -10.3795
2315 7 -10.8111 3.46814 -2.5796
2448 7 -9.15834 7.21842 -9.77047
1906 6 -6.70291 8.15975 -1.12006
1754 7 -8.86162 8.74891 -6.61767
2134 6 -8.56176 2.57095 -8.70626
1812 7 -1.72956 7.70485 -5.917
2501 7 -7.16511 5.71983 -13.4683
1727 7 -4.403 6.89851 -5.95266
415 1 -12.1461 1.55319 -5.38291
1254 3 -0.716985 3.47245 -3.69166
1953 7 -3.3149 10.1234 -1.37639
1640 7 -6.43608 7.13746 -9.81557
421 2 -12.854 3.54577 -5.99987
1630 6 -6.19801 4.73972 -1.63549
417 3 -11.363 1.99875 -4.77088
2233 6 -4.75198 14.158 -5.7531
1459 6 -1.29163 10.3077 -12.2453
2217 7 -12.2388 9.83729 -9.26553
555 3 -5.07789 0.102839 -3.1437
389 3 -10.0707 5.94672 -12.0333
1874 7 -9.15761 11.1929 -5.17017
2447 7 -9.28261 5.72397 -9.56293
2416 6 -5.43022 11.3106 -10.6577
2106 7 -1.16246 0.940279 14.7779
400 3 -9.37751 1.4859 14.5362
1628 7 -4.82643 1.22695 -4.94575
2502 7 -5.91102 6.52241 -13.7422
2293 6 -7.29275 8.22408 -4.30922
2125 6 -9.41516 13.6287 -7.13796
2549 7 -12.427 12.9549 -9.41614
414 2 -11.7557 1.19481 -6.40042
1351 6 -1.50967 6.84587 -11.9281
435 2 15.9228 7.54068 -3.86224
1199 3 -2.43893 6.93468 -0.834821
409 4 -10.7592 1.01473 -8.53453
1599 7 -10.866 7.43736 -5.95217
423 3 -14.3449 3.61178 -7.31847
1463 7 -8.47587 9.00335 -10.328
438 3 16.0357 8.46384 -2.24125
1862 7 -13.5568 11.1873 -8.24924
443 1 -9.74394 6.89782 -1.64269
2223 7 -5.3686 1.43042 -8.33365
1256 1 -2.70327 4.43086 -3.36056
387 1 -11.1166 5.84474 16.4109
1879 6 -8.98208 -14.7517 -13.0865
2114 7 -2.52126 9.87604 -13.4201
1955 7 -3.56655 8.15837 -4.36555
420 3 -13.6534 2.78749 -4.47022
1366 6 -5.61341 10.5204 -5.91176
1203 3 -0.294008 8.13136 -1.71594
437 3 16.647 9.24951 -3.86876
2126 7 -9.84648 14.3449 -7.60405
1632 7 -6.94375 4.32676 -2.07089
1444 6 -6.9206 0.399295 -5.58442
1353 7 -2.17684 7.45921 -11.6199
2172 7 -12.9585 10.1991 -12.315
422 1 -13.5933 4.12052 -6.68314
2548 6 -12.6034 13.7533 -9.91373
2118 7 -3.49925 -15.1692 16.8234
2229 7 -4.93858 12.7848 -4.10354
1907 7 -6.90075 9.07643 -1.31186
1602 7 -8.22047 3.8015 18.702
1627 6 -4.19921 1.87118 -5.27408
1445 7 -7.65755 0.112992 -5.04482
1462 6 -9.23561 8.6979 -10.8237
2104 6 -0.608014 1.19003 -13.2666
1641 7 -6.72265 7.14022 -11.3021
2128 6 -4.90079 -17.0606 14.6874
2127 7 -8.59235 14.006 -6.82675
1759 6 -3.25715 7.1332 -8.51986
1435 6 -0.955353 0.672624 -7.93705
1639 6 -6.47418 7.71488 -10.578
1612 6 -0.108217 5.3111 -9.31911
1726 6 -4.90363 6.26233 -6.46342
2216 7 -11.9073 9.29258 -10.6386
1446 7 -7.09343 1.3252 -5.75492
1198 3 -3.44737 8.48573 -0.60366
1774 6 -6.67972 2.36267 -11.1998
1659 7 -4.9281 5.43868 -11.8107
1461 7 -0.721953 10.6996 -12.9072
2527 6 -7.18028 7.66657 -7.39772
1728 7 -5.27016 5.66571 -5.81079
1601 7 -7.79406 4.10097 -11.5032
2215 6 -11.8836 9.06679 -9.7087
1951 6 -3.76139 10.97 -1.38901
2072 7 -10.4116 12.0071 -1.56311
1921 6 -8.47821 2.82617 -4.68607
1447 6 -1.59753 2.17842 -10.4247
441 3 18.4183 7.54514 -3.91506
394 1 -10.8869 2.73203 16.0271
2340 7 -6.49188 10.4245 -11.8227
1936 6 -2.92008 -16.6353 -10.3839
1597 6 -11.2349 6.83585 -6.59899
432 1 14.8243 7.76806 -4.09867
2334 7 15.3638 5.87271 -1.48158
1433 7 -8.25503 -15.2898 18.6488
1464 7 -9.96672 8.76815 -10.2098
2028 7 -6.627 13.3447 -2.83911
2377 6 -2.21819 -14.9017 -7.82954
2295 7 -6.50413 7.9428 -3.84533
2309 7 -1.45924 5.07151 -12.1934
1200 2 -2.06618 8.75926 -1.30987
2484 7 -5.18166 11.4309 -0.61014
2528 7 -7.63065 7.04952 -7.97448
2198 7 -12.8135 -15.7934 -4.77287
1706 7 -12.9486 8.06163 -8.52469
2057 7 -0.310445 10.0002 -6.72165
2332 6 15.2047 6.37728 -0.683877
1775 7 -5.94314 2.96278 -11.3162
445 3 -9.19641 6.24528 -2.34085
1448 7 -2.27646 1.55157 -10.6744
2478 7 -14.4824 7.5606 -12.5818
1796 7 -13.3299 12.2899 -2.64683
1891 6 -4.55992 7.42568 -2.73634
1657 6 -4.6246 4.61988 -11.4187
1207 2 -0.912132 10.5256 -2.67569
2508 7 -11.5679 -14.649 -13.9582
1223 3 -6.56531 0.83683 -0.447936
2294 7 -7.02776 8.26859 -5.22793
1832 7 -5.22773 5.8085 -0.11729
2417 7 -5.8564 10.9552 -9.87775
405 5 -9.25246 4.84793 14.652
1705 6 -13.5726 7.47989 -8.09071
2511 7 -7.12692 4.3506 -4.65971
2135 7 -8.97959 3.15087 -8.0696
2222 7 -6.88009 1.49935 -8.38436
1566 7 -4.00316 9.02828 -10.4571
418 1 -13.2445 2.58135 -5.50026
2379 7 -2.30051 -14.3589 -8.61369
391 1 -11.4536 3.94632 16.8224
1249 1 -0.231445 3.55659 -1.43643
2100 7 -1.62144 12.0446 -7.35251
2264 7 18.5846 -16.1086 17.0577
1368 7 -5.47953 11.3379 -6.39121
2136 7 -9.24902 1.95294 -8.95519
1690 6 -3.36245 0.151047 -10.8796
1450 6 -6.24656 5.27994 -9.30091
1252 2 -1.28142 3.81243 -1.84458
1952 7 -3.10129 11.5939 -1.08707
1253 1 -1.2608 4.13768 -2.93831
1893 7 -5.3654 7.65962 -2.27514
1795 6 -12.7158 13.0227 -2.59927
1938 7 -2.46605 -16.4998 -9.55223
1908 7 -6.96937 8.04244 -0.208205
1922 7 -9.00711 2.22095 -4.16626
2197 6 -13.3396 -15.9549 -5.55605
1367 7 -5.531 10.7662 -4.99035
1215 5 -0.737598 11.6374 -1.3435
2446 6 -9.18556 6.54879 -9.08703
1572 7 -9.53435 -16.4027 -8.43595
390 2 -11.6689 4.90092 16.1195
1805 7 -8.96895 10.3239 14.7807
2170 6 -12.0329 9.96855 -12.235
1197 1 -2.44168 8.00745 -0.513122
446 1 -10.0791 5.83792 -0.493446
1792 6 -8.05169 10.524 -1.17182
2500 6 -6.4525 6.18406 -13.029
1449 7 -1.75132 2.93619 -10.9889
2117 7 -3.97097 -15.7163 15.4929
1797 7 -11.8615 12.6117 -2.46702
396 3 -10.4775 1.91977 16.7327
808 3 -13.9859 1.75872 15.3283
1753 6 -9.33565 9.08294 -5.85613
2115 7 -3.8429 10.1941 14.6973
1201 1 -1.32194 8.3653 -2.13343
2228 7 -4.59707 11.8237 -2.98482
1755 7 -8.70073 9.04135 -5.14102
1993 6 -9.55532 13.2363 -0.520388
726 1 14.4953 1.83503 -9.62984
2397 7 -12.3092 4.92797 -4.01047
1460 7 -0.708051 9.75998 -11.7203
1793 7 -8.4256 10.7629 -0.323671
2335 6 -4.61174 2.76528 -0.544974
388 3 -11.6803 6.58404 17.0518
1432 6 -7.54127 -15.0188 18.0714
1861 6 -12.6228 11.3939 -8.28251
2314 6 -10.2719 2.72166 -2.31825
1600 6 -8.21548 4.49636 18.0437
1954 6 -3.39503 8.25102 -5.30269
439 1 17.9975 7.90733 -2.99553
2509 6 -6.22994 4.67474 -4.5785
2338 6 -7.1576 10.1912 -12.4697
384 1 -11.1883 6.72496 15.0929
1956 7 -3.97157 8.9618 -5.58307
2129 7 -5.71905 -17.3716 15.0746
428 2 -14.0118 5.83693 -5.27844
1859 7 -0.61491 -15.7348 -14.0346
1923 7 -9.09896 3.22381 -5.29663
2098 6 -1.61732 11.1865 -6.92849
1856 7 -4.70196 3.66562 -7.03718
1598 7 -10.6809 6.94543 -7.3719
1369 6 -3.76098 9.76443 -8.36283
1560 7 -11.1091 3.50354 -6.3338
1564 6 -3.86165 8.26139 -11.0122
257 3 -4.76923 0.560629 15.3731
1565 7 -4.71997 7.84086 -11.0639
559 3 -3.52892 0.668825 -1.60526
1937 7 -2.3319 -17.196 -10.8899