ITEM: TIMESTEP
10000000
ITEM: NUMBER OF ATOMS
1620
ITEM: BOX BOUNDS pp pp pp
-1.4391884350598822e+01 1.4391884350598822e+01
-1.4391884350598822e+01 1.4391884350598822e+01
-1.4391884350598822e+01 1.4391884350598822e+01
ITEM: ATOMS id type xs ys zs
2385 7 0.397126 0.273388 0.154201
1881 7 0.315603 0.0857228 0.0796692
1520 7 0.392113 0.355077 0.203465
2133 7 0.0414306 0.00900127 0.42075
215 3 0.334202 0.155702 0.0723595
157 3 0.210356 0.098334 0.430314
2537 7 0.437273 0.462298 0.0294004
1671 7 0.406071 0.00433822 0.283054
659 3 0.10885 0.199136 0.0995671
153 3 0.281724 0.110011 0.456223
794 3 0.180691 0.436935 0.0643473
2543 7 0.386137 0.298016 0.464402
1629 7 0.449073 0.400389 0.337547
1985 7 0.167372 0.458515 0.299911
2238 7 0.0514532 0.262935 0.0290765
1880 7 0.293881 0.076384 0.126651
1926 7 0.328893 0.160024 0.40987
2285 7 0.0626933 0.458867 0.399111
1947 7 0.204096 0.216357 0.378008
1685 7 0.00393939 0.091448 0.405441
1500 7 0.198012 0.330206 0.160085
212 3 0.339244 0.225625 0.133446
637 3 0.186577 0.0613027 0.351929
2198 7 0.156171 0.0489577 0.17013
209 3 0.336496 0.298297 0.119926
2204 7 0.11191 0.416727 0.463604
2574 7 0.455723 0.300902 0.308847
1691 7 0.0479806 0.37817 0.166323
201 3 0.474794 0.340452 0.0663344
617 3 0.0322117 0.0816106 0.141009
225 5 0.440916 0.189894 0.0366116
658 3 0.13597 0.234304 0.143045
793 3 0.192249 0.472411 0.115637
1628 7 0.454522 0.452657 0.339694
655 3 0.046519 0.194808 0.148786
2573 7 0.439788 0.258057 0.282835
649 3 0.102525 0.201096 0.288372
673 3 0.225373 0.218261 0.293447
772 3 0.052535 0.369191 0.260994
2462 7 0.119111 0.287966 0.386275
2487 7 0.370572 0.0738216 0.321751
1394 7 0.0198965 0.326906 0.0577137
1884 7 0.399499 0.0888112 0.244619
651 3 0.0177868 0.206001 0.228001
1436 7 0.17378 0.369026 0.0100454
669 3 0.251471 0.145348 0.249347
2544 7 0.358044 0.329618 0.495681
1572 7 0.371845 0.0434361 0.0237036
542 3 0.287786 0.381862 0.375718
642 3 0.119967 0.107491 0.37324
1054 3 0.418237 0.111781 0.368481
638 3 0.128662 0.0336097 0.340089
2096 7 0.292325 0.48946 0.210057
1056 3 0.468376 0.172621 0.369884
1452 7 0.29947 0.423206 0.0228582
621 3 0.0140187 0.103739 0.0617304
1664 7 0.0360042 0.252831 0.446535
786 3 0.0483098 0.466925 0.0523469
1742 7 0.316172 0.0835084 0.393857
2259 7 0.431615 0.4066 0.151273
1395 7 0.0717385 0.331188 0.049944
1676 7 0.234218 0.42915 0.232958
545 5 0.305652 0.382331 0.461222
2258 7 0.479665 0.416312 0.132213
2379 7 0.3099 0.0696624 0.209091
2423 7 0.170885 0.275174 0.277728
2381 7 0.0545107 0.363894 0.472951
2205 7 0.116547 0.402368 0.41322
2006 7 0.268773 0.0218447 0.265582
1692 7 0.0679216 0.345666 0.1301
2183 7 0.445354 0.244551 0.432686
2031 7 0.356143 0.360099 0.300096
2472 7 0.27297 0.361442 0.143341
790 3 0.112157 0.464636 0.142944
2418 7 0.396372 0.0208569 0.0884525
552 3 0.42334 0.379426 0.468574
195 3 0.459831 0.325589 0.187203
1442 7 0.153457 0.115622 0.189686
208 3 0.337746 0.305217 0.0591181
2310 7 0.313284 0.489838 0.070776
1859 7 0.481514 0.0197476 0.0919136
1682 7 0.177674 0.271033 0.0374155
1683 7 0.206975 0.314701 0.0383483
2087 7 0.278591 0.310461 0.181024
1502 7 0.346509 0.209158 0.328344
543 3 0.32186 0.330043 0.394899
1986 7 0.186541 0.428579 0.338676
1050 3 0.416404 0.0210475 0.37839
548 3 0.377443 0.38676 0.382258
1883 7 0.435406 0.0777842 0.207804
2300 7 0.298561 0.260737 0.299126
2271 7 0.483956 0.330684 0.379285
663 3 0.191243 0.19305 0.0942298
220 3 0.431505 0.121337 0.110583
2592 7 0.106722 0.407788 0.0323369
2589 7 0.198739 0.117609 0.0240416
547 3 0.342163 0.435053 0.402095
662 3 0.190514 0.134662 0.116093
666 3 0.259952 0.15971 0.140825
160 3 0.143253 0.110922 0.4518
611 3 0.00541068 0.0874767 0.245054
2538 7 0.444233 0.421845 0.0622847
2247 7 0.169872 0.348604 0.392248
648 3 0.0424483 0.189312 0.302272
1443 7 0.120798 0.10661 0.229916
2424 7 0.183541 0.320083 0.302004
670 3 0.272782 0.204373 0.22317
2463 7 0.14148 0.267442 0.429225
1496 7 0.415704 0.207801 0.226897
2411 7 0.0112174 0.29941 0.183617
2207 7 0.375286 0.423663 0.308535
1365 7 0.339706 0.195294 0.478268
645 3 0.0502955 0.127649 0.335
2541 7 0.21314 0.301317 0.458152
773 3 0.0206456 0.404269 0.298696
1445 7 0.263292 0.467991 0.339582
641 3 0.145029 0.152012 0.336997
2540 7 0.263966 0.310225 0.447973
1497 7 0.426094 0.159449 0.244796
2270 7 0.436326 0.315462 0.395593
2384 7 0.364919 0.271699 0.195748
2286 7 0.044311 0.474472 0.352369
161 3 0.14279 0.0432525 0.458838
2471 7 0.295041 0.396321 0.110743
2208 7 0.356888 0.416467 0.25979
2030 7 0.394519 0.324898 0.29272
216 3 0.360584 0.157491 0.12774
656 3 0.0800258 0.150063 0.175371
219 3 0.432334 0.18196 0.122519
191 3 0.488686 0.377268 0.235411
1403 7 0.0360352 0.285005 0.317474
1677 7 0.191599 0.410796 0.208197
2222 7 0.119481 0.342347 0.186556
1499 7 0.214567 0.308253 0.115249
1503 7 0.371433 0.203456 0.282381
1626 7 0.0460983 0.23382 0.371227
2199 7 0.14629 0.0220686 0.126021
206 3 0.402354 0.33436 0.054928
770 5 0.0912462 0.473704 0.255228
198 3 0.49661 0.261675 0.13717
2301 7 0.293475 0.312573 0.30644
1523 7 0.460522 0.0127246 0.228452
652 3 0.0626998 0.244287 0.244395
2135 7 0.186374 0.496109 0.193575
1521 7 0.352087 0.381437 0.181802
551 3 0.423238 0.426509 0.432642
635 5 0.189933 0.0633145 0.246138
1652 7 0.105723 0.209404 0.497061
672 3 0.189887 0.165355 0.276241
2588 7 0.242401 0.114397 0.0531903
138 3 0.467759 0.0556804 0.490474
675 5 0.167149 0.204641 0.223027
2246 7 0.211675 0.372608 0.413286
1946 7 0.235304 0.238993 0.413785
2184 7 0.393908 0.241266 0.422255
665 3 0.235463 0.217114 0.149559
1404 7 0.0853605 0.299744 0.3067
1571 7 0.385329 0.0940604 0.0283599
1743 7 0.334812 0.0575738 0.435646
1218 3 0.184875 0.462562 0.437901
1899 7 0.464883 0.480468 0.15763
202 3 0.464904 0.275287 0.0610919
2252 7 0.355556 0.252063 0.0177192
1625 7 0.0383729 0.188262 0.396347
1446 7 0.314396 0.455568 0.338945
1057 3 0.487345 0.135305 0.414821
156 3 0.225813 0.0371569 0.446726
1653 7 0.102565 0.188984 0.448694
1925 7 0.282605 0.168868 0.386514
1053 3 0.453536 0.0927793 0.323602
2088 7 0.281699 0.28579 0.22737
1049 3 0.42938 0.0563822 0.42772
2223 7 0.14799 0.328007 0.228364
2378 7 0.356759 0.0671374 0.185337
768 3 0.126603 0.412981 0.269154
2486 7 0.341318 0.0379725 0.296745
1451 7 0.248424 0.414737 0.0322843
644 3 0.0696381 0.087303 0.294818
1838 7 0.387118 0.425119 0.00417719
767 3 0.0983836 0.413358 0.322668
2097 7 0.296357 0.447956 0.178002
1222 3 0.261383 0.465965 0.473106
791 3 0.132066 0.41028 0.118684
1364 7 0.387151 0.17298 0.482431
1665 7 0.0232526 0.289237 0.482288
222 3 0.482111 0.123164 0.0481437
213 3 0.314157 0.220676 0.0770907
632 3 0.143909 0.0126101 0.266797
2489 7 0.490792 0.174907 0.259909
2201 7 0.00460572 0.400033 0.420756
205 3 0.390302 0.353764 0.111281
2508 7 0.128135 0.0854843 0.0247376
628 3 0.00207514 0.241167 0.112349
2012 7 0.461268 0.164354 0.49461
1632 7 0.353875 0.499757 0.413918
2307 7 0.346959 0.423803 0.685883
1818 7 0.469373 0.139075 0.979843
171 3 0.0915612 0.00110376 0.627715
333 3 0.153268 0.376295 0.647263
2076 7 0.070921 0.368085 0.804984
572 3 0.264791 0.295534 0.711972
1226 3 0.302191 0.496429 0.532781
2013 7 0.451224 0.129367 0.532575
1220 5 0.179417 0.451379 0.529912
137 3 0.487416 0.0106294 0.532005
168 3 0.0747949 0.0801508 0.577169
1817 7 0.45384 0.123185 0.932172
1802 7 0.38494 0.213102 0.622742
254 3 0.220695 0.413635 0.866492
334 3 0.110177 0.393799 0.611602
351 3 0.17246 0.116742 0.676626
1593 7 0.155451 0.0551751 0.890238
1229 3 0.299668 0.460786 0.62329
807 3 0.0998798 0.479602 0.913978
1716 7 0.0445056 0.315371 0.608773
1584 7 0.423315 0.293083 0.973345
341 3 0.2193 0.272978 0.589035
74 3 0.431703 0.377595 0.74362
358 3 0.201572 0.167797 0.79037
2450 7 0.376629 0.117685 0.744081
1592 7 0.179248 0.0129193 0.86988
343 3 0.125603 0.225851 0.574474
582 3 0.290849 0.392957 0.779253
1932 7 0.0460697 0.196514 0.921139
344 3 0.180165 0.203309 0.549123
992 3 0.370696 0.496031 0.761251
585 5 0.3556 0.407182 0.762063
1752 7 0.0979278 0.476843 0.689044
1715 7 0.0309836 0.33156 0.560593
1778 7 0.0416694 0.0911964 0.667446
2522 7 0.204451 0.0250455 0.773025
1988 7 0.384352 0.0186885 0.658287
1391 7 0.16953 0.273548 0.853352
1413 7 0.250773 0.422098 0.698403
1377 7 0.203625 0.318893 0.784679
167 3 0.130625 0.0595988 0.59995
357 3 0.262881 0.179272 0.784615
1931 7 0.0552016 0.233328 0.884702
2391 7 0.119536 0.0651561 0.730445
257 3 0.280424 0.435969 0.890347
1230 3 0.23763 0.467025 0.619328
566 3 0.283651 0.321992 0.563618
354 3 0.219756 0.121257 0.730935
326 3 0.0189306 0.303953 0.687073
583 3 0.308818 0.383079 0.838758
1656 7 0.368115 0.150167 0.856121
2253 7 0.340946 0.23095 0.971816
146 3 0.331519 0.00770607 0.525105
2325 7 0.0214484 0.450059 0.543788
2451 7 0.36836 0.0668742 0.754862
2318 7 0.177779 0.475203 0.671585
154 3 0.250224 0.11883 0.506952
336 3 0.115217 0.324475 0.557753
1655 7 0.347233 0.183207 0.820929
2507 7 0.110734 0.125981 0.99604
2577 7 0.131547 0.143114 0.874873
2033 7 0.279127 0.0541803 0.943287
1788 7 0.430308 0.445086 0.678851
1803 7 0.345888 0.188661 0.648115
1412 7 0.207181 0.403742 0.721405
1704 7 0.345997 0.29436 0.922141
80 3 0.46196 0.293356 0.628036
1400 7 0.175362 0.0159139 0.688042
78 3 0.423058 0.33375 0.682222
2066 7 0.0704648 0.0869168 0.857296
2060 7 0.0187708 0.141834 0.518748
1791 7 0.258274 0.196605 0.637417
2103 7 0.453338 0.36448 0.945569
329 3 0.0569216 0.384106 0.676176
317 3 0.106081 0.188037 0.724554
1434 7 0.27826 0.192223 0.930678
1568 7 0.395711 0.0890715 0.609034
327 3 0.0436345 0.328576 0.739392
2210 7 0.494798 0.182607 0.925715
2306 7 0.320603 0.379104 0.694469
340 3 0.188511 0.279126 0.539613
77 3 0.476251 0.365615 0.672297
568 3 0.275845 0.367798 0.643346
1839 7 0.356386 0.431209 0.96193
1569 7 0.415582 0.114884 0.650327
569 3 0.252315 0.3099 0.636589
2118 7 0.412241 0.0894919 0.826942
554 3 0.436772 0.445959 0.516354
1724 7 0.219438 0.308756 0.896383
1536 7 0.252193 0.095084 0.868233
2523 7 0.240703 0.0584263 0.791404
1920 7 0.181197 0.246191 0.684091
1745 7 0.448965 0.11039 0.710794
360 5 0.192266 0.227412 0.758434
2117 7 0.435816 0.0791682 0.87281
250 3 0.152758 0.41854 0.821173
337 3 0.16995 0.356728 0.570473
348 3 0.14249 0.15041 0.599853
73 3 0.433346 0.322791 0.770404
71 3 0.45233 0.370526 0.825063
1703 7 0.342691 0.345658 0.911014
140 5 0.481512 0.0537977 0.579659
678 3 0.0502434 0.0289124 0.727232
2559 7 0.0521028 0.153527 0.608047
1427 7 0.406937 0.406198 0.906165
1392 7 0.212079 0.254013 0.829388
350 3 0.221373 0.134455 0.642524
2147 7 0.0137129 0.426158 0.764453
1485 7 0.215997 0.168663 0.976229
1919 7 0.178104 0.292238 0.658864
330 3 0.110825 0.364168 0.702646
1940 7 0.154663 0.300097 0.950652
355 3 0.261978 0.157692 0.705084
1484 7 0.190167 0.17739 0.931251
2591 7 0.0992348 0.385163 0.985451
1746 7 0.497666 0.129994 0.713986
558 3 0.426402 0.403296 0.580375
1967 7 0.102178 0.0102649 0.942098
2262 7 0.372564 0.18636 0.713305
2225 7 0.387862 0.258989 0.547292
1913 7 0.0163876 0.00772848 0.870236
2075 7 0.120692 0.35699 0.792099
2457 7 0.31505 0.239321 0.534877
561 3 0.397714 0.329756 0.580617
2433 7 0.306331 0.0206906 0.769874
565 3 0.323151 0.286873 0.590008
1928 7 0.346939 0.104755 0.951108
575 3 0.369629 0.277951 0.721574
2261 7 0.403186 0.189457 0.755954
1433 7 0.321103 0.188088 0.900451
562 3 0.370599 0.358306 0.626158
1890 7 0.473759 0.218751 0.776104
2148 7 0.0146688 0.408644 0.814037
2130 7 0.430089 0.00527773 0.880096
251 3 0.202389 0.45712 0.795206
2375 7 0.0974945 0.363045 0.88537
1227 3 0.284809 0.440659 0.543801
559 3 0.36875 0.42769 0.591427
322 3 0.0278871 0.247483 0.743632
2034 7 0.269643 0.0944099 0.975813
1725 7 0.25958 0.313719 0.930003
555 3 0.374824 0.463242 0.506805
2439 7 0.283794 0.00826478 0.872142
170 3 0.0407299 0.0123794 0.592702
1835 7 0.20747 0.016265 0.515133
1539 7 0.114145 0.243613 0.84492
320 5 0.120647 0.264316 0.742086
1583 7 0.473147 0.28136 0.961278
2576 7 0.18273 0.13345 0.86758
1929 7 0.356096 0.153753 0.967892
1905 7 0.0620709 0.181394 0.998157
2456 7 0.268929 0.244041 0.510039
1958 7 0.0673297 0.497894 0.516222
1344 3 0.496043 0.495885 0.955352
2226 7 0.414155 0.213565 0.543892
1535 7 0.289482 0.116462 0.837922
2108 7 0.0327921 0.412731 0.896426
579 3 0.366411 0.324036 0.80985
1428 7 0.375881 0.407578 0.863739
1790 7 0.280937 0.201512 0.590208
347 3 0.134522 0.190889 0.650629
1968 7 0.103666 0.0595 0.960537
1779 7 0.0471371 0.13455 0.696718
1608 7 0.490601 0.0960307 0.836128
573 3 0.304984 0.262341 0.675062
164 3 0.0860827 0.0948578 0.502277
2376 7 0.0980204 0.326077 0.922779
2387 7 0.485549 0.23808 0.502805
1376 7 0.195132 0.317356 0.732797
580 3 0.306124 0.312426 0.808266
1941 7 0.178027 0.254892 0.963952
149 3 0.334777 0.100212 0.510142
323 3 0.0505583 0.230571 0.686175
576 3 0.31978 0.2594 0.754758
2129 7 0.424934 0.0186331 0.930706
253 3 0.178589 0.451123 0.898324
2067 7 0.0552579 0.105491 0.810498
2237 7 0.092792 0.25694 0.997116
147 3 0.343853 0.029213 0.581659
2558 7 0.0236091 0.192466 0.587115
1437 7 0.212121 0.36398 0.974397
2102 7 0.460244 0.406063 0.977025
1904 7 0.027971 0.14192 0.991427
1889 7 0.472936 0.171098 0.798349
260 3 0.338473 0.489066 0.889016
246 3 0.100757 0.465338 0.782916
1538 7 0.101603 0.294586 0.848202
1787 7 0.388456 0.471706 0.661355
318 3 0.0684408 0.199925 0.774574
2390 7 0.108736 0.0550103 0.78091
81 3 0.460536 0.257635 0.673367
150 3 0.299312 0.0922388 0.563229
163 3 0.135895 0.116478 0.531007
2382 7 0.0221531 0.378803 0.511642
258 3 0.247141 0.470589 0.935547
2255 7 0.478892 0.328303 0.527519
993 3 0.429306 0.471686 0.758658
1418 7 0.497923 0.0650649 0.649765
2121 7 0.344356 0.00732283 0.951508
142 3 0.411207 0.00154884 0.566564
1658 7 0.352832 0.634742 0.0751577
2234 7 0.383409 0.983542 0.155969
537 3 0.420176 0.805242 0.222208
1734 7 0.0938402 0.579731 0.438851
2550 7 0.120088 0.827236 0.279277
1544 7 0.498018 0.589496 0.0343074
423 3 0.0273863 0.571466 0.311125
413 3 0.217073 0.63479 0.31717
2316 7 0.237644 0.629539 0.434653
1371 7 0.457665 0.666788 0.193779
1667 7 0.0222011 0.85166 0.0349663
2016 7 0.0150077 0.888002 0.187467
1794 7 0.19118 0.860185 0.367336
1559 7 0.172935 0.792769 0.222335
2303 7 0.469567 0.900213 0.331971
447 3 0.0949404 0.817619 0.436449
424 3 0.0635889 0.546719 0.263171
2417 7 0.419973 0.973936 0.085667
412 3 0.197806 0.665833 0.364866
2304 7 0.430314 0.928607 0.311494
1707 7 0.0960713 0.606286 0.103733
2099 7 0.33589 0.872047 0.151376
1796 7 0.0997323 0.905115 0.300351
1760 7 0.41046 0.706851 0.147345
1367 7 0.385056 0.833227 0.482045
2027 7 0.312458 0.99863 0.373694
1575 7 0.468031 0.617195 0.147645
1875 7 0.334883 0.821138 0.366028
1898 7 0.470998 0.532697 0.158669
1761 7 0.410801 0.665984 0.114238
2529 7 0.256934 0.825972 0.244454
2396 7 0.0275291 0.702529 0.349123
1047 3 0.490847 0.981984 0.373177
530 3 0.463674 0.939633 0.161006
535 3 0.465652 0.87524 0.234509
1205 3 0.375079 0.760416 0.428673
1631 7 0.395282 0.517979 0.440746
2510 7 0.404167 0.6193 0.435587
1209 3 0.461749 0.770812 0.378954
1361 7 0.395758 0.638035 0.205827
538 3 0.435919 0.801288 0.162
2157 7 0.394087 0.728339 0.00902082
2100 7 0.331538 0.916294 0.179474
1212 3 0.471642 0.858567 0.433793
450 5 0.0690534 0.738664 0.397031
787 3 0.0681471 0.507589 0.0883641
2177 7 0.446436 0.728158 0.289115
2073 7 0.127125 0.89762 0.396634
2315 7 0.283697 0.608817 0.449352
430 3 0.0238046 0.690128 0.220249
1767 7 0.230346 0.701411 0.485065
1754 7 0.256666 0.750572 0.363187
2345 7 0.0902526 0.998203 0.056884
2346 7 0.140679 0.990998 0.0437871
1727 7 0.337746 0.636003 0.394095
1670 7 0.39592 0.968435 0.245984
1358 7 0.471501 0.509335 0.405371
1455 7 0.0388726 0.963157 0.121915
1640 7 0.0987343 0.663634 0.160698
392 3 0.189288 0.749268 0.0112511
1668 7 0.0319368 0.847804 0.086509
2496 7 0.157047 0.731881 0.497642
2217 7 0.228332 0.704599 0.217594
1562 7 0.333083 0.515623 0.265691
633 3 0.192723 0.991363 0.303114
1874 7 0.289111 0.839678 0.384125
1851 7 0.461858 0.899835 0.0353929
1862 7 0.256082 0.886271 0.300804
1614 7 0.483595 0.527686 0.249258
1353 7 0.147592 0.683673 0.105007
1863 7 0.270229 0.916398 0.341529
2126 7 0.203705 0.941983 0.202923
1613 7 0.474636 0.579432 0.246354
1979 7 0.101228 0.773808 0.107657
2235 7 0.342923 0.982139 0.189513
1599 7 0.313296 0.612609 0.24345
2448 7 0.110389 0.527525 0.183744
2547 7 0.15169 0.905367 0.0540252
1797 7 0.0937687 0.930399 0.346083
1217 3 0.163891 0.510053 0.476841
2514 7 0.119163 0.668367 0.464379
2213 7 0.0738141 0.778121 0.219567
393 3 0.137792 0.726618 0.0255139
1850 7 0.424089 0.883778 0.0682861
1955 7 0.318208 0.779795 0.319721
1776 7 0.322946 0.612868 0.134971
2105 7 0.405105 0.565101 0.0308289
389 3 0.151501 0.814514 0.0197046
540 5 0.497522 0.804132 0.178069
1563 7 0.300161 0.509133 0.306192
2501 7 0.26184 0.663353 0.0975402
798 3 0.224045 0.50462 0.0429872
407 3 0.146165 0.716538 0.312594
2229 7 0.390863 0.9157 0.38307
2393 7 0.0201791 0.638557 0.0946809
419 3 0.107913 0.535497 0.328629
1622 7 0.470435 0.706123 0.083353
1641 7 0.139716 0.677463 0.190624
2127 7 0.210236 0.895938 0.22749
2136 7 0.20139 0.538973 0.167052
1830 7 0.19245 0.864389 0.125811
2313 7 0.00968145 0.809917 0.170669
1213 3 0.497659 0.844154 0.383151
1359 7 0.455807 0.554139 0.428011
1449 7 0.3904 0.61464 0.298294
1659 7 0.382927 0.668909 0.0488294
1637 7 0.0207012 0.928324 0.332205
130 3 0.148979 0.822249 0.499998
2072 7 0.109874 0.931947 0.432557
1980 7 0.130453 0.744441 0.140057
2495 7 0.135272 0.739573 0.450388
2340 7 0.334412 0.81816 0.0600696
1352 7 0.197402 0.673687 0.0913832
1953 7 0.337346 0.944744 0.468907
1464 7 0.300153 0.937241 0.078528
1463 7 0.325879 0.899395 0.0526022
2063 7 0.262034 0.989281 0.201281
1362 7 0.38322 0.587263 0.200231
2528 7 0.294109 0.857804 0.22519
1706 7 0.0832691 0.584125 0.149681
1829 7 0.182074 0.812848 0.124311
2444 7 0.477887 0.793524 0.0830073
445 3 0.0603601 0.82388 0.342904
1448 7 0.435253 0.593062 0.315291
2309 7 0.314158 0.503576 0.121538
1046 3 0.462477 0.974027 0.42831
1811 7 0.374692 0.687125 0.334029
416 3 0.1734 0.575176 0.304159
1775 7 0.301114 0.573773 0.10738
2513 7 0.0862963 0.658863 0.424431
2511 7 0.418726 0.604416 0.387288
797 3 0.192988 0.545492 0.0797972
1566 7 0.32969 0.760919 0.148094
534 3 0.416715 0.883651 0.194084
417 3 0.172355 0.576444 0.367466
444 3 0.0354854 0.839512 0.396472
427 3 0.0624875 0.620965 0.223407
1457 7 0.10801 0.897032 0.125581
2445 7 0.449138 0.786532 0.0395231
1907 7 0.198648 0.801404 0.398457
2435 7 0.0467736 0.936568 0.253939
1922 7 0.346275 0.585886 0.445538
2447 7 0.0688776 0.504363 0.161236
2172 7 0.0240967 0.751685 0.0569661
420 3 0.0867662 0.581968 0.365364
2214 7 0.10828 0.743833 0.239635
2171 7 0.0288132 0.756024 0.10917
2477 7 0.274619 0.755905 0.0877181
1454 7 0.0358012 0.9332 0.0787934
1733 7 0.0709437 0.534882 0.423666
1857 7 0.409972 0.513109 0.197518
2007 7 0.293961 0.987358 0.296284
2502 7 0.24666 0.690459 0.13998
2228 7 0.360866 0.896601 0.421823
1755 7 0.281732 0.705404 0.353296
1994 7 0.214144 0.936255 0.472714
2397 7 0.058311 0.659947 0.346762
1793 7 0.194082 0.877916 0.416768
1202 3 0.371683 0.706157 0.49202
1210 3 0.416141 0.813959 0.396904
801 3 0.158564 0.578093 0.0143055
1206 3 0.425567 0.716489 0.428739
1370 7 0.457874 0.675547 0.245639
1956 7 0.31884 0.825103 0.293017
1908 7 0.191643 0.752663 0.416939
2028 7 0.337203 0.952231 0.374765
2478 7 0.252727 0.803502 0.0923585
1923 7 0.343152 0.616649 0.488085
426 3 0.00927056 0.589483 0.232222
2339 7 0.386797 0.821152 0.0637046
1598 7 0.29453 0.586128 0.284838
1601 7 0.0466399 0.638912 0.00806857
1560 7 0.205749 0.821725 0.193161
410 5 0.132447 0.643875 0.281379
1574 7 0.494612 0.59762 0.106699
177 3 0.0361357 0.975259 0.493108
408 3 0.202142 0.704142 0.28033
178 3 0.0493985 0.912798 0.496298
448 3 0.120731 0.789336 0.386004
1565 7 0.355451 0.794214 0.116564
2549 7 0.160341 0.859916 0.288111
1728 7 0.317248 0.636436 0.34566
2216 7 0.262525 0.665439 0.225573
1458 7 0.148091 0.91865 0.151897
1812 7 0.366977 0.725302 0.298683
2064 7 0.228086 0.998565 0.162196
2178 7 0.479148 0.75439 0.257364
1223 3 0.237595 0.52453 0.486793
2546 7 0.189568 0.906878 0.0175654
2394 7 0.0168345 0.681756 0.0648656
1995 7 0.263372 0.918855 0.466383
2114 7 0.275174 0.800932 0.0126743
1856 7 0.357442 0.511502 0.195421
267 3 0.298261 0.589531 0.000667001
458 3 0.33093 0.698891 0.744775
1515 7 0.136036 0.933561 0.802464
808 3 0.0727673 0.533573 0.920077
1479 7 0.291998 0.961764 0.64283
1514 7 0.154843 0.892978 0.774795
1895 7 0.120029 0.930558 0.975459
237 3 0.0816791 0.675541 0.826002
2019 7 0.0642576 0.85878 0.905409
239 3 0.129235 0.609651 0.860531
1401 7 0.17606 0.969367 0.663563
1257 3 0.405947 0.534596 0.535332
2582 7 0.100701 0.590112 0.676886
1240 3 0.28654 0.656304 0.695603
123 3 0.0358873 0.832534 0.585625
997 3 0.42413 0.5096 0.826095
483 3 0.46174 0.846011 0.958261
677 3 0.042395 0.990593 0.679854
476 3 0.356291 0.87348 0.90507
1188 3 0.489641 0.850646 0.62169
1001 3 0.452878 0.592107 0.852078
998 3 0.390211 0.557464 0.804387
1611 7 0.459809 0.736895 0.947901
2295 7 0.321914 0.619081 0.573179
2220 7 0.21469 0.834865 0.791452
1820 7 0.140706 0.794266 0.69345
402 3 0.221325 0.669802 0.830694
403 3 0.180673 0.718242 0.825988
2277 7 0.0217282 0.887969 0.689573
453 3 0.311675 0.668619 0.826367
381 3 0.156635 0.840864 0.85906
143 3 0.404548 0.993377 0.507434
471 3 0.401364 0.878429 0.81775
452 3 0.371875 0.677814 0.808563
116 3 0.100689 0.728159 0.643895
478 3 0.403088 0.781137 0.877859
2430 7 0.434492 0.993462 0.803959
233 3 0.101517 0.688389 0.739506
1896 7 0.0827045 0.917118 0.940925
1189 3 0.460175 0.907428 0.626714
2438 7 0.278657 0.959969 0.892328
1833 7 0.246606 0.958117 0.577498
1997 7 0.286153 0.583163 0.757512
244 3 0.0737016 0.524652 0.835903
382 3 0.162307 0.781432 0.870185
2337 7 0.347594 0.550459 0.62835
1821 7 0.182929 0.800143 0.724257
1532 7 0.0688498 0.835631 0.683953
475 3 0.324674 0.822804 0.898654
2331 7 0.452716 0.617037 0.938643
2466 7 0.247299 0.873672 0.879137
2483 7 0.262055 0.848453 0.637789
2142 7 0.16589 0.624639 0.576311
1195 3 0.352258 0.808399 0.573249
388 3 0.0984535 0.817012 0.996736
1247 3 0.431853 0.678276 0.659057
1832 7 0.287963 0.933383 0.556425
1662 7 0.0263912 0.501795 0.968505
1610 7 0.463725 0.717384 0.996587
2120 7 0.354875 0.972549 0.989539
2268 7 0.334377 0.717021 0.90799
1011 3 0.434883 0.703017 0.785795
995 5 0.446642 0.518944 0.712445
1234 3 0.232229 0.520033 0.66434
227 3 0.157511 0.668631 0.682841
2594 7 0.262043 0.917012 0.681953
119 3 0.0558813 0.717671 0.564186
399 3 0.189586 0.646308 0.901147
1799 7 0.156981 0.701341 0.575522
1533 7 0.082815 0.80593 0.642854
400 3 0.144302 0.682928 0.878933
1872 7 0.484548 0.812722 0.548427
2195 7 0.185671 0.557574 0.834249
2583 7 0.0784343 0.563178 0.637579
129 3 0.118458 0.876974 0.51068
2465 7 0.229738 0.901177 0.920385
385 3 0.150242 0.861266 0.939651
1241 3 0.28709 0.666405 0.636673
1854 7 0.0523581 0.735667 0.898561
1841 7 0.19069 0.927093 0.868142
1237 3 0.243866 0.598107 0.620307
1185 3 0.488717 0.897713 0.509908
1836 7 0.170103 0.993756 0.544515
133 3 0.169552 0.896513 0.57649
375 3 0.0606319 0.745809 0.794663
2267 7 0.295651 0.694298 0.935381
180 5 0.106875 0.984074 0.510319
485 3 0.453945 0.896168 0.86757
1542 7 0.223683 0.59558 0.50654
243 3 0.0753332 0.54539 0.776588
810 5 0.11728 0.500274 0.98972
479 3 0.386096 0.797161 0.937636
2193 7 0.495514 0.859221 0.754852
1243 3 0.362493 0.637872 0.707257
1258 3 0.46774 0.524332 0.514219
804 3 0.171748 0.527555 0.914857
2484 7 0.261873 0.8217 0.592505
240 3 0.0695925 0.597468 0.85367
468 3 0.307834 0.864071 0.778713
232 3 0.152296 0.705364 0.761634
379 3 0.118725 0.789065 0.80467
1688 7 0.245732 0.749814 0.626148
1541 7 0.238042 0.571028 0.550782
464 3 0.377965 0.79648 0.716258
1033 3 0.48484 0.759219 0.631791
1233 3 0.290798 0.523882 0.673113
135 5 0.144467 0.829851 0.603586
1853 7 0.0792407 0.736953 0.943749
2196 7 0.231496 0.537727 0.850754
469 3 0.347488 0.906736 0.755332
1842 7 0.150586 0.943922 0.897717
1009 3 0.465116 0.637664 0.747077
1250 3 0.449243 0.671184 0.586228
386 3 0.185601 0.804485 0.936858
2187 7 0.45779 0.96485 0.674234
1248 3 0.438395 0.615518 0.671868
462 3 0.304126 0.763651 0.710329
1916 7 0.248778 0.787647 0.842181
270 5 0.255362 0.596886 0.935281
1244 3 0.358731 0.694426 0.674923
1184 3 0.465555 0.934195 0.552016
1236 3 0.236132 0.593898 0.683818
2231 7 0.0292286 0.869627 0.75918
1255 3 0.458056 0.608517 0.524873
396 3 0.195555 0.678951 0.979934
236 3 0.0705114 0.629617 0.78072
2219 7 0.214844 0.857991 0.744213
1203 3 0.432404 0.71258 0.502974
1806 7 0.268667 0.906611 0.993984
228 3 0.199085 0.653043 0.727802
472 3 0.352401 0.909915 0.834233
1959 7 0.0513469 0.536956 0.547606
374 3 0.0286433 0.800025 0.794521
1199 3 0.425628 0.738595 0.570335
2595 7 0.213973 0.899776 0.669362
2294 7 0.374179 0.619357 0.567302
230 5 0.154303 0.601362 0.749258
2330 7 0.48434 0.575378 0.933096
1192 3 0.400623 0.853006 0.642837
482 3 0.411856 0.881361 0.945096
2556 7 0.12614 0.519957 0.563388
1917 7 0.286331 0.824395 0.839811
132 3 0.207566 0.860509 0.545844
1251 3 0.479216 0.62637 0.622721
465 3 0.334902 0.843339 0.695992
1766 7 0.23976 0.697656 0.536675
2115 7 0.290438 0.775339 0.969335
1260 5 0.427726 0.526259 0.596429
395 3 0.134132 0.677552 0.960832
378 3 0.09461 0.842739 0.826826
1871 7 0.476572 0.766405 0.524818
2141 7 0.153869 0.64316 0.624048
461 3 0.282749 0.797734 0.755764
1973 7 0.068683 0.61076 0.521466
1989 7 0.365623 0.969589 0.660475
112 3 0.00224801 0.663948 0.654506
1910 7 0.489397 0.689068 0.898352
265 3 0.342519 0.575756 0.90195
1016 3 0.471846 0.759221 0.833589
365 5 0.00338093 0.660344 0.814638
2186 7 0.488177 0.938311 0.707978
115 3 0.0697511 0.679492 0.623656
264 3 0.351702 0.539723 0.954435
405 5 0.228685 0.727806 0.89625
1998 7 0.251168 0.59825 0.793772
1196 3 0.375444 0.777666 0.623657
455 5 0.340225 0.750768 0.829566
683 3 0.00719135 0.954529 0.75003
1800 7 0.174077 0.750882 0.571082
2606 7 0.141093 0.911332 0.707614
1191 3 0.389687 0.878724 0.584484
111 3 0.0401726 0.656544 0.702073
1974 7 0.0882507 0.613869 0.570187
2607 7 0.124761 0.890353 0.662232
457 3 0.277265 0.712716 0.77179
174 3 0.0883318 0.916681 0.574162
1689 7 0.208034 0.75076 0.662812
2232 7 0.0765584 0.891772 0.753195
1911 7 0.468484 0.668855 0.854529
1015 3 0.450674 0.78094 0.779779
125 3 0.0905572 0.771321 0.519478
1952 7 0.342016 0.90292 0.500455
268 3 0.337647 0.626904 0.968891
1002 3 0.496902 0.54568 0.837881
1602 7 0.0481608 0.657169 0.958767
2555 7 0.171961 0.544583 0.571154
2192 7 0.444932 0.867082 0.742767
1805 7 0.250103 0.860373 0.977138
1012 3 0.455942 0.722749 0.73168
1368 7 0.404866 0.854226 0.52601
1892 7 0.259907 0.767726 0.526391
2018 7 0.0245914 0.879778 0.877986
805 3 0.138575 0.572801 0.944941
1893 7 0.287449 0.811236 0.515684
1198 3 0.368207 0.722006 0.571526
247 3 0.145966 0.500107 0.760785
175 3 0.0317722 0.943523 0.57557
2336 7 0.386581 0.542057 0.662638
1506 7 0.00663979 0.765881 0.6811
118 3 0.00369172 0.729812 0.596757
1478 7 0.273614 0.984895 0.686341
261 3 0.303763 0.530498 0.866154
2421 7 0.00908429 0.746972 0.975156
486 3 0.462949 0.931345 0.920882
126 3 0.0584532 0.827552 0.502589
2319 7 0.14887 0.508045 0.642396
800 3 0.216567 0.560777 0.992321
122 3 0.00337692 0.800283 0.549005
2429 7 0.382323 0.9929 0.797296
2106 7 0.443658 0.550764 0.99805
2156 7 0.34496 0.71469 0.996115
1505 7 0.00501279 0.807901 0.64951
1254 3 0.496138 0.585337 0.570902
2432 7 0.331972 0.987365 0.738279
1751 7 0.0517089 0.501314 0.694635
1064 3 0.614655 0.111459 0.337026
1938 7 0.559625 0.043755 0.108419
2132 7 0.999531 0.00679777 0.389034
199 3 0.538447 0.289941 0.103178
1554 7 0.85889 0.0872532 0.269185
858 3 0.977467 0.39828 0.00762905
2388 7 0.527332 0.219403 0.476889
1293 3 0.772602 0.293511 0.286612
603 3 0.899814 0.177683 0.296258
1061 3 0.566791 0.128499 0.404712
911 3 0.731427 0.108528 0.0413851
1488 7 0.757229 0.405884 0.0950999
777 3 0.973662 0.395341 0.242371
780 3 0.954963 0.441145 0.169948
1279 3 0.936617 0.208628 0.352372
2372 7 0.594192 0.19417 0.145329
1650 7 0.711947 0.00570744 0.0649782
1289 3 0.824443 0.261168 0.346376
1425 7 0.951632 0.417171 0.354873
183 3 0.580007 0.446884 0.160017
2078 7 0.846872 0.400531 0.114731
1617 7 0.640342 0.0660921 0.144012
1040 5 0.549478 0.0455741 0.459604
1167 3 0.608131 0.198764 0.434879
40 3 0.892226 0.319749 0.493809
880 3 0.797822 0.205021 0.154045
857 3 0.914468 0.380846 0.00691184
1389 7 0.54106 0.125246 0.138525
988 3 0.685199 0.00536374 0.497146
873 3 0.817144 0.231548 0.00705947
784 3 0.992249 0.492363 0.118318
2079 7 0.878376 0.383783 0.153375
1275 3 0.907778 0.142576 0.403077
1278 3 0.950479 0.209028 0.414148
1271 3 0.838683 0.126389 0.447582
894 3 0.680869 0.324271 0.0209934
1300 3 0.766071 0.445655 0.284055
1075 3 0.674847 0.291604 0.246107
624 3 0.995552 0.178582 0.0549389
2562 7 0.58101 0.403104 0.0930866
1410 7 0.873927 0.408394 0.44375
192 3 0.535356 0.342966 0.251807
1067 3 0.668347 0.151441 0.293546
874 3 0.844166 0.176683 0.00426394
888 3 0.729935 0.308647 0.167607
610 3 0.96373 0.042263 0.258488
2243 7 0.7624 0.0373091 0.220655
2202 7 0.952181 0.404149 0.419769
2037 7 0.852355 0.469766 0.395849
1494 7 0.687121 0.0972197 0.45776
1493 7 0.686158 0.147554 0.472986
2282 7 0.851559 0.327602 0.0257706
2274 7 0.528998 0.0726083 0.300178
1070 3 0.669033 0.209007 0.227666
1161 3 0.704251 0.326184 0.417283
912 3 0.732101 0.0636456 0.000408513
1295 3 0.817888 0.385314 0.259691
2000 7 0.548931 0.413086 0.406869
887 3 0.732887 0.248996 0.142731
2139 7 0.950075 0.486032 0.0221902
907 3 0.819441 0.114895 0.0552926
2250 7 0.559435 0.347613 0.381683
1165 3 0.634556 0.273914 0.402274
1305 5 0.734251 0.381237 0.363161
755 3 0.939647 0.493373 0.421437
1286 3 0.857636 0.287218 0.412837
898 3 0.635021 0.398307 0.0204178
1299 3 0.808528 0.42374 0.324816
1265 5 0.752533 0.194875 0.448507
832 3 0.633732 0.458676 0.455257
2601 7 0.892519 0.324209 0.303611
1409 7 0.902119 0.408346 0.488152
2093 7 0.696908 0.065109 0.374869
731 3 0.904698 0.462717 0.223045
2460 7 0.836343 0.126184 0.150251
2145 7 0.607074 0.189178 0.00751389
2600 7 0.918175 0.370083 0.301683
1397 7 0.539011 0.372436 0.0308155